320
Atoms. Timestep: 2000
C	56.05050820877857	1.58615465579185	0.0	306.124	
C	56.05050820877857	4.75846396737555	0.0	307.132	
C	56.05050820877857	7.93077327895925	0.0	306.404	
C	56.05050820877857	11.10308259054295	0.0	306.628	
C	56.05050820877857	14.27539190212665	0.0	306.769	
C	56.05050820877857	17.44770121371035	0.0	306.839	
C	56.05050820877857	20.62001052529405	0.0	306.879	
C	56.05050820877857	23.79231983687775	0.0	306.368	
C	56.05050820877857	26.96462914846145	0.0	305.991	
C	56.05050820877857	30.13693846004515	0.0	304.941	
C	56.05050820877857	33.30924777162885	0.0	305.768	
C	56.05050820877857	36.48155708321255	0.0	306.447	
C	56.05050820877857	39.65386639479625	0.0	306.976	
C	56.05050820877857	42.82617570637995	0.0	306.399	
C	56.05050820877857	45.99848501796365	0.0	306.886	
C	56.05050820877857	49.17079432954735	0.0	306.503	
C	58.78467934091411	1.58615465579185	0.0	305.212	
C	58.78467934091411	4.75846396737555	0.0	305.286	
C	58.78467934091411	7.93077327895925	0.0	305.593	
C	58.78467934091411	11.10308259054295	0.0	306.94	
C	58.78467934091411	14.27539190212665	0.0	307.281	
C	58.78467934091411	17.44770121371035	0.0	307.021	
C	58.78467934091411	20.62001052529405	0.0	306.44	
C	58.78467934091411	23.79231983687775	0.0	306.01	
C	58.78467934091411	26.96462914846145	0.0	305.717	
C	58.78467934091411	30.13693846004515	0.0	306.726	
C	58.78467934091411	33.30924777162885	0.0	305.88	
C	58.78467934091411	36.48155708321255	0.0	306.762	
C	58.78467934091411	39.65386639479625	0.0	305.797	
C	58.78467934091411	42.82617570637995	0.0	306.286	
C	58.78467934091411	45.99848501796365	0.0	306.227	
C	58.78467934091411	49.17079432954735	0.0	306.913	
C	61.518850473049646	1.58615465579185	0.0	304.7	
C	61.518850473049646	4.75846396737555	0.0	305.28	
C	61.518850473049646	7.93077327895925	0.0	306.151	
C	61.518850473049646	11.10308259054295	0.0	305.931	
C	61.518850473049646	14.27539190212665	0.0	305.542	
C	61.518850473049646	17.44770121371035	0.0	306.355	
C	61.518850473049646	20.62001052529405	0.0	306.625	
C	61.518850473049646	23.79231983687775	0.0	307.453	
C	61.518850473049646	26.96462914846145	0.0	306.202	
C	61.518850473049646	30.13693846004515	0.0	304.804	
C	61.518850473049646	33.30924777162885	0.0	305.682	
C	61.518850473049646	36.48155708321255	0.0	306.721	
C	61.518850473049646	39.65386639479625	0.0	305.408	
C	61.518850473049646	42.82617570637995	0.0	305.864	
C	61.518850473049646	45.99848501796365	0.0	305.659	
C	61.518850473049646	49.17079432954735	0.0	305.182	
C	64.25302160518518	1.58615465579185	0.0	304.716	
C	64.25302160518518	4.75846396737555	0.0	304.587	
C	64.25302160518518	7.93077327895925	0.0	305.775	
C	64.25302160518518	11.10308259054295	0.0	306.593	
C	64.25302160518518	14.27539190212665	0.0	306.159	
C	64.25302160518518	17.44770121371035	0.0	306.068	
C	64.25302160518518	20.62001052529405	0.0	306.929	
C	64.25302160518518	23.79231983687775	0.0	306.594	
C	64.25302160518518	26.96462914846145	0.0	305.73	
C	64.25302160518518	30.13693846004515	0.0	306.653	
C	64.25302160518518	33.30924777162885	0.0	306.73	
C	64.25302160518518	36.48155708321255	0.0	307.043	
C	64.25302160518518	39.65386639479625	0.0	304.265	
C	64.25302160518518	42.82617570637995	0.0	305.337	
C	64.25302160518518	45.99848501796365	0.0	304.839	
C	64.25302160518518	49.17079432954735	0.0	304.329	
C	66.98719273732073	1.58615465579185	0.0	305.505	
C	66.98719273732073	4.75846396737555	0.0	304.578	
C	66.98719273732073	7.93077327895925	0.0	305.631	
C	66.98719273732073	11.10308259054295	0.0	305.401	
C	66.98719273732073	14.27539190212665	0.0	306.484	
C	66.98719273732073	17.44770121371035	0.0	305.025	
C	66.98719273732073	20.62001052529405	0.0	306.745	
C	66.98719273732073	23.79231983687775	0.0	306.855	
C	66.98719273732073	26.96462914846145	0.0	306.221	
C	66.98719273732073	30.13693846004515	0.0	305.162	
C	66.98719273732073	33.30924777162885	0.0	305.029	
C	66.98719273732073	36.48155708321255	0.0	306.287	
C	66.98719273732073	39.65386639479625	0.0	305.134	
C	66.98719273732073	42.82617570637995	0.0	303.451	
C	66.98719273732073	45.99848501796365	0.0	306.395	
C	66.98719273732073	49.17079432954735	0.0	304.683	
C	69.72136386945627	1.58615465579185	0.0	305.722	
C	69.72136386945627	4.75846396737555	0.0	305.771	
C	69.72136386945627	7.93077327895925	0.0	305.885	
C	69.72136386945627	11.10308259054295	0.0	305.975	
C	69.72136386945627	14.27539190212665	0.0	306.815	
C	69.72136386945627	17.44770121371035	0.0	307.472	
C	69.72136386945627	20.62001052529405	0.0	305.673	
C	69.72136386945627	23.79231983687775	0.0	306.558	
C	69.72136386945627	26.96462914846145	0.0	306.117	
C	69.72136386945627	30.13693846004515	0.0	305.712	
C	69.72136386945627	33.30924777162885	0.0	306.277	
C	69.72136386945627	36.48155708321255	0.0	305.972	
C	69.72136386945627	39.65386639479625	0.0	305.53	
C	69.72136386945627	42.82617570637995	0.0	304.916	
C	69.72136386945627	45.99848501796365	0.0	305.22	
C	69.72136386945627	49.17079432954735	0.0	305.082	
C	72.45553500159181	1.58615465579185	0.0	305.134	
C	72.45553500159181	4.75846396737555	0.0	305.51	
C	72.45553500159181	7.93077327895925	0.0	305.248	
C	72.45553500159181	11.10308259054295	0.0	304.811	
C	72.45553500159181	14.27539190212665	0.0	304.833	
C	72.45553500159181	17.44770121371035	0.0	305.607	
C	72.45553500159181	20.62001052529405	0.0	306.526	
C	72.45553500159181	23.79231983687775	0.0	305.189	
C	72.45553500159181	26.96462914846145	0.0	304.991	
C	72.45553500159181	30.13693846004515	0.0	306.375	
C	72.45553500159181	33.30924777162885	0.0	306.871	
C	72.45553500159181	36.48155708321255	0.0	305.674	
C	72.45553500159181	39.65386639479625	0.0	304.891	
C	72.45553500159181	42.82617570637995	0.0	304.757	
C	72.45553500159181	45.99848501796365	0.0	305.022	
C	72.45553500159181	49.17079432954735	0.0	306.54	
C	75.18970613372736	1.58615465579185	0.0	305.568	
C	75.18970613372736	4.75846396737555	0.0	306.352	
C	75.18970613372736	7.93077327895925	0.0	305.551	
C	75.18970613372736	11.10308259054295	0.0	306.528	
C	75.18970613372736	14.27539190212665	0.0	304.491	
C	75.18970613372736	17.44770121371035	0.0	306.449	
C	75.18970613372736	20.62001052529405	0.0	305.583	
C	75.18970613372736	23.79231983687775	0.0	305.974	
C	75.18970613372736	26.96462914846145	0.0	303.241	
C	75.18970613372736	30.13693846004515	0.0	305.596	
C	75.18970613372736	33.30924777162885	0.0	306.499	
C	75.18970613372736	36.48155708321255	0.0	302.938	
C	75.18970613372736	39.65386639479625	0.0	302.427	
C	75.18970613372736	42.82617570637995	0.0	304.298	
C	75.18970613372736	45.99848501796365	0.0	305.036	
C	75.18970613372736	49.17079432954735	0.0	305.16	
C	77.92387726586288	1.58615465579185	0.0	304.987	
C	77.92387726586288	4.75846396737555	0.0	304.487	
C	77.92387726586288	7.93077327895925	0.0	305.918	
C	77.92387726586288	11.10308259054295	0.0	307.365	
C	77.92387726586288	14.27539190212665	0.0	305.917	
C	77.92387726586288	17.44770121371035	0.0	306.267	
C	77.92387726586288	20.62001052529405	0.0	304.059	
C	77.92387726586288	23.79231983687775	0.0	304.227	
C	77.92387726586288	26.96462914846145	0.0	304.001	
C	77.92387726586288	30.13693846004515	0.0	304.652	
C	77.92387726586288	33.30924777162885	0.0	303.778	
C	77.92387726586288	36.48155708321255	0.0	303.895	
C	77.92387726586288	39.65386639479625	0.0	305.403	
C	77.92387726586288	42.82617570637995	0.0	304.725	
C	77.92387726586288	45.99848501796365	0.0	305.83	
C	77.92387726586288	49.17079432954735	0.0	305.856	
C	80.65804839799843	1.58615465579185	0.0	303.21	
C	80.65804839799843	4.75846396737555	0.0	304.327	
C	80.65804839799843	7.93077327895925	0.0	305.787	
C	80.65804839799843	11.10308259054295	0.0	305.922	
C	80.65804839799843	14.27539190212665	0.0	304.549	
C	80.65804839799843	17.44770121371035	0.0	304.913	
C	80.65804839799843	20.62001052529405	0.0	305.558	
C	80.65804839799843	23.79231983687775	0.0	305.059	
C	80.65804839799843	26.96462914846145	0.0	304.865	
C	80.65804839799843	30.13693846004515	0.0	304.638	
C	80.65804839799843	33.30924777162885	0.0	302.746	
C	80.65804839799843	36.48155708321255	0.0	303.187	
C	80.65804839799843	39.65386639479625	0.0	305.61	
C	80.65804839799843	42.82617570637995	0.0	305.577	
C	80.65804839799843	45.99848501796365	0.0	305.9	
C	80.65804839799843	49.17079432954735	0.0	305.015	
C	83.39221953013397	1.58615465579185	0.0	304.536	
C	83.39221953013397	4.75846396737555	0.0	304.962	
C	83.39221953013397	7.93077327895925	0.0	306.213	
C	83.39221953013397	11.10308259054295	0.0	304.577	
C	83.39221953013397	14.27539190212665	0.0	305.167	
C	83.39221953013397	17.44770121371035	0.0	305.497	
C	83.39221953013397	20.62001052529405	0.0	304.682	
C	83.39221953013397	23.79231983687775	0.0	303.961	
C	83.39221953013397	26.96462914846145	0.0	304.995	
C	83.39221953013397	30.13693846004515	0.0	303.668	
C	83.39221953013397	33.30924777162885	0.0	303.412	
C	83.39221953013397	36.48155708321255	0.0	304.186	
C	83.39221953013397	39.65386639479625	0.0	304.609	
C	83.39221953013397	42.82617570637995	0.0	304.756	
C	83.39221953013397	45.99848501796365	0.0	303.79	
C	83.39221953013397	49.17079432954735	0.0	305.429	
C	86.1263906622695	1.58615465579185	0.0	303.669	
C	86.1263906622695	4.75846396737555	0.0	303.431	
C	86.1263906622695	7.93077327895925	0.0	304.141	
C	86.1263906622695	11.10308259054295	0.0	304.639	
C	86.1263906622695	14.27539190212665	0.0	304.697	
C	86.1263906622695	17.44770121371035	0.0	305.14	
C	86.1263906622695	20.62001052529405	0.0	304.468	
C	86.1263906622695	23.79231983687775	0.0	304.638	
C	86.1263906622695	26.96462914846145	0.0	303.933	
C	86.1263906622695	30.13693846004515	0.0	303.967	
C	86.1263906622695	33.30924777162885	0.0	302.445	
C	86.1263906622695	36.48155708321255	0.0	302.605	
C	86.1263906622695	39.65386639479625	0.0	302.436	
C	86.1263906622695	42.82617570637995	0.0	303.665	
C	86.1263906622695	45.99848501796365	0.0	304.098	
C	86.1263906622695	49.17079432954735	0.0	304.464	
C	88.86056179440504	1.58615465579185	0.0	304.517	
C	88.86056179440504	4.75846396737555	0.0	303.931	
C	88.86056179440504	7.93077327895925	0.0	303.996	
C	88.86056179440504	11.10308259054295	0.0	305.133	
C	88.86056179440504	14.27539190212665	0.0	304.727	
C	88.86056179440504	17.44770121371035	0.0	302.464	
C	88.86056179440504	20.62001052529405	0.0	303.475	
C	88.86056179440504	23.79231983687775	0.0	305.344	
C	88.86056179440504	26.96462914846145	0.0	303.664	
C	88.86056179440504	30.13693846004515	0.0	303.744	
C	88.86056179440504	33.30924777162885	0.0	304.096	
C	88.86056179440504	36.48155708321255	0.0	303.853	
C	88.86056179440504	39.65386639479625	0.0	303.635	
C	88.86056179440504	42.82617570637995	0.0	302.688	
C	88.86056179440504	45.99848501796365	0.0	303.725	
C	88.86056179440504	49.17079432954735	0.0	303.712	
C	91.59473292654059	1.58615465579185	0.0	303.658	
C	91.59473292654059	4.75846396737555	0.0	303.766	
C	91.59473292654059	7.93077327895925	0.0	302.217	
C	91.59473292654059	11.10308259054295	0.0	303.648	
C	91.59473292654059	14.27539190212665	0.0	304.567	
C	91.59473292654059	17.44770121371035	0.0	303.626	
C	91.59473292654059	20.62001052529405	0.0	304.126	
C	91.59473292654059	23.79231983687775	0.0	303.067	
C	91.59473292654059	26.96462914846145	0.0	304.241	
C	91.59473292654059	30.13693846004515	0.0	304.059	
C	91.59473292654059	33.30924777162885	0.0	304.303	
C	91.59473292654059	36.48155708321255	0.0	304.021	
C	91.59473292654059	39.65386639479625	0.0	304.077	
C	91.59473292654059	42.82617570637995	0.0	302.469	
C	91.59473292654059	45.99848501796365	0.0	304.595	
C	91.59473292654059	49.17079432954735	0.0	304.839	
C	94.32890405867612	1.58615465579185	0.0	304.033	
C	94.32890405867612	4.75846396737555	0.0	303.528	
C	94.32890405867612	7.93077327895925	0.0	303.178	
C	94.32890405867612	11.10308259054295	0.0	302.863	
C	94.32890405867612	14.27539190212665	0.0	302.491	
C	94.32890405867612	17.44770121371035	0.0	303.565	
C	94.32890405867612	20.62001052529405	0.0	303.762	
C	94.32890405867612	23.79231983687775	0.0	303.297	
C	94.32890405867612	26.96462914846145	0.0	302.981	
C	94.32890405867612	30.13693846004515	0.0	302.971	
C	94.32890405867612	33.30924777162885	0.0	303.573	
C	94.32890405867612	36.48155708321255	0.0	304.102	
C	94.32890405867612	39.65386639479625	0.0	302.909	
C	94.32890405867612	42.82617570637995	0.0	304.013	
C	94.32890405867612	45.99848501796365	0.0	304.633	
C	94.32890405867612	49.17079432954735	0.0	302.878	
C	97.06307519081166	1.58615465579185	0.0	304.626	
C	97.06307519081166	4.75846396737555	0.0	304.405	
C	97.06307519081166	7.93077327895925	0.0	303.935	
C	97.06307519081166	11.10308259054295	0.0	302.792	
C	97.06307519081166	14.27539190212665	0.0	302.32	
C	97.06307519081166	17.44770121371035	0.0	301.462	
C	97.06307519081166	20.62001052529405	0.0	303.066	
C	97.06307519081166	23.79231983687775	0.0	302.85	
C	97.06307519081166	26.96462914846145	0.0	303.283	
C	97.06307519081166	30.13693846004515	0.0	303.286	
C	97.06307519081166	33.30924777162885	0.0	303.516	
C	97.06307519081166	36.48155708321255	0.0	303.372	
C	97.06307519081166	39.65386639479625	0.0	302.908	
C	97.06307519081166	42.82617570637995	0.0	303.117	
C	97.06307519081166	45.99848501796365	0.0	302.612	
C	97.06307519081166	49.17079432954735	0.0	303.54	
C	99.7972463229472	1.58615465579185	0.0	303.749	
C	99.7972463229472	4.75846396737555	0.0	303.535	
C	99.7972463229472	7.93077327895925	0.0	303.152	
C	99.7972463229472	11.10308259054295	0.0	303.101	
C	99.7972463229472	14.27539190212665	0.0	302.602	
C	99.7972463229472	17.44770121371035	0.0	302.85	
C	99.7972463229472	20.62001052529405	0.0	302.87	
C	99.7972463229472	23.79231983687775	0.0	302.646	
C	99.7972463229472	26.96462914846145	0.0	302.44	
C	99.7972463229472	30.13693846004515	0.0	303.057	
C	99.7972463229472	33.30924777162885	0.0	304.177	
C	99.7972463229472	36.48155708321255	0.0	304.218	
C	99.7972463229472	39.65386639479625	0.0	301.708	
C	99.7972463229472	42.82617570637995	0.0	302.123	
C	99.7972463229472	45.99848501796365	0.0	303.595	
C	99.7972463229472	49.17079432954735	0.0	303.318	
C	102.53141745508275	1.58615465579185	0.0	303.099	
C	102.53141745508275	4.75846396737555	0.0	303.246	
C	102.53141745508275	7.93077327895925	0.0	303.099	
C	102.53141745508275	11.10308259054295	0.0	303.405	
C	102.53141745508275	14.27539190212665	0.0	303.679	
C	102.53141745508275	17.44770121371035	0.0	304.084	
C	102.53141745508275	20.62001052529405	0.0	303.06	
C	102.53141745508275	23.79231983687775	0.0	303.336	
C	102.53141745508275	26.96462914846145	0.0	303.742	
C	102.53141745508275	30.13693846004515	0.0	303.125	
C	102.53141745508275	33.30924777162885	0.0	302.81	
C	102.53141745508275	36.48155708321255	0.0	304.041	
C	102.53141745508275	39.65386639479625	0.0	303.092	
C	102.53141745508275	42.82617570637995	0.0	303.524	
C	102.53141745508275	45.99848501796365	0.0	303.55	
C	102.53141745508275	49.17079432954735	0.0	303.442	
C	105.26558858721829	1.58615465579185	0.0	303.452	
C	105.26558858721829	4.75846396737555	0.0	302.727	
C	105.26558858721829	7.93077327895925	0.0	302.704	
C	105.26558858721829	11.10308259054295	0.0	303.314	
C	105.26558858721829	14.27539190212665	0.0	304.229	
C	105.26558858721829	17.44770121371035	0.0	303.179	
C	105.26558858721829	20.62001052529405	0.0	304.404	
C	105.26558858721829	23.79231983687775	0.0	304.041	
C	105.26558858721829	26.96462914846145	0.0	303.235	
C	105.26558858721829	30.13693846004515	0.0	303.502	
C	105.26558858721829	33.30924777162885	0.0	302.901	
C	105.26558858721829	36.48155708321255	0.0	303.759	
C	105.26558858721829	39.65386639479625	0.0	303.717	
C	105.26558858721829	42.82617570637995	0.0	304.055	
C	105.26558858721829	45.99848501796365	0.0	304.836	
C	105.26558858721829	49.17079432954735	0.0	304.201	
C	107.99975971935383	1.58615465579185	0.0	303.824	
C	107.99975971935383	4.75846396737555	0.0	302.467	
C	107.99975971935383	7.93077327895925	0.0	303.732	
C	107.99975971935383	11.10308259054295	0.0	303.644	
C	107.99975971935383	14.27539190212665	0.0	305.027	
C	107.99975971935383	17.44770121371035	0.0	304.131	
C	107.99975971935383	20.62001052529405	0.0	305.015	
C	107.99975971935383	23.79231983687775	0.0	304.684	
C	107.99975971935383	26.96462914846145	0.0	303.436	
C	107.99975971935383	30.13693846004515	0.0	302.94	
C	107.99975971935383	33.30924777162885	0.0	304.263	
C	107.99975971935383	36.48155708321255	0.0	302.436	
C	107.99975971935383	39.65386639479625	0.0	302.822	
C	107.99975971935383	42.82617570637995	0.0	304.625	
C	107.99975971935383	45.99848501796365	0.0	304.337	
C	107.99975971935383	49.17079432954735	0.0	304.013	
