3200
Atoms. Timestep: 2000
C	1.3670855660677699	1.58615465579185	0.0	0.0	
C	1.3670855660677699	4.75846396737555	0.0	0.0	
C	1.3670855660677699	7.93077327895925	0.0	0.0	
C	1.3670855660677699	11.10308259054295	0.0	0.0	
C	1.3670855660677699	14.27539190212665	0.0	0.0	
C	1.3670855660677699	17.44770121371035	0.0	0.0	
C	1.3670855660677699	20.62001052529405	0.0	0.0	
C	1.3670855660677699	23.79231983687775	0.0	0.0	
C	1.3670855660677699	26.96462914846145	0.0	0.0	
C	1.3670855660677699	30.13693846004515	0.0	0.0	
C	1.3670855660677699	33.30924777162885	0.0	0.0	
C	1.3670855660677699	36.48155708321255	0.0	0.0	
C	1.3670855660677699	39.65386639479625	0.0	0.0	
C	1.3670855660677699	42.82617570637995	0.0	0.0	
C	1.3670855660677699	45.99848501796365	0.0	0.0	
C	1.3670855660677699	49.17079432954735	0.0	0.0	
C	4.10125669820331	1.58615465579185	0.0	0.0	
C	4.10125669820331	4.75846396737555	0.0	0.0	
C	4.10125669820331	7.93077327895925	0.0	0.0	
C	4.10125669820331	11.10308259054295	0.0	0.0	
C	4.10125669820331	14.27539190212665	0.0	0.0	
C	4.10125669820331	17.44770121371035	0.0	0.0	
C	4.10125669820331	20.62001052529405	0.0	0.0	
C	4.10125669820331	23.79231983687775	0.0	0.0	
C	4.10125669820331	26.96462914846145	0.0	0.0	
C	4.10125669820331	30.13693846004515	0.0	0.0	
C	4.10125669820331	33.30924777162885	0.0	0.0	
C	4.10125669820331	36.48155708321255	0.0	0.0	
C	4.10125669820331	39.65386639479625	0.0	0.0	
C	4.10125669820331	42.82617570637995	0.0	0.0	
C	4.10125669820331	45.99848501796365	0.0	0.0	
C	4.10125669820331	49.17079432954735	0.0	0.0	
C	6.83542783033885	1.58615465579185	0.0	310.419	
C	6.83542783033885	4.75846396737555	0.0	310.188	
C	6.83542783033885	7.93077327895925	0.0	309.964	
C	6.83542783033885	11.10308259054295	0.0	309.651	
C	6.83542783033885	14.27539190212665	0.0	310.213	
C	6.83542783033885	17.44770121371035	0.0	310.317	
C	6.83542783033885	20.62001052529405	0.0	310.265	
C	6.83542783033885	23.79231983687775	0.0	310.686	
C	6.83542783033885	26.96462914846145	0.0	310.314	
C	6.83542783033885	30.13693846004515	0.0	309.807	
C	6.83542783033885	33.30924777162885	0.0	310.115	
C	6.83542783033885	36.48155708321255	0.0	310.302	
C	6.83542783033885	39.65386639479625	0.0	310.619	
C	6.83542783033885	42.82617570637995	0.0	309.865	
C	6.83542783033885	45.99848501796365	0.0	309.943	
C	6.83542783033885	49.17079432954735	0.0	310.666	
C	9.569598962474391	1.58615465579185	0.0	309.709	
C	9.569598962474391	4.75846396737555	0.0	310.144	
C	9.569598962474391	7.93077327895925	0.0	309.963	
C	9.569598962474391	11.10308259054295	0.0	309.846	
C	9.569598962474391	14.27539190212665	0.0	309.717	
C	9.569598962474391	17.44770121371035	0.0	309.546	
C	9.569598962474391	20.62001052529405	0.0	309.944	
C	9.569598962474391	23.79231983687775	0.0	309.709	
C	9.569598962474391	26.96462914846145	0.0	309.954	
C	9.569598962474391	30.13693846004515	0.0	310.15	
C	9.569598962474391	33.30924777162885	0.0	309.736	
C	9.569598962474391	36.48155708321255	0.0	310.116	
C	9.569598962474391	39.65386639479625	0.0	309.559	
C	9.569598962474391	42.82617570637995	0.0	309.87	
C	9.569598962474391	45.99848501796365	0.0	309.616	
C	9.569598962474391	49.17079432954735	0.0	310.085	
C	12.303770094609929	1.58615465579185	0.0	308.768	
C	12.303770094609929	4.75846396737555	0.0	309.488	
C	12.303770094609929	7.93077327895925	0.0	309.353	
C	12.303770094609929	11.10308259054295	0.0	309.412	
C	12.303770094609929	14.27539190212665	0.0	307.734	
C	12.303770094609929	17.44770121371035	0.0	307.775	
C	12.303770094609929	20.62001052529405	0.0	307.844	
C	12.303770094609929	23.79231983687775	0.0	307.776	
C	12.303770094609929	26.96462914846145	0.0	308.294	
C	12.303770094609929	30.13693846004515	0.0	307.607	
C	12.303770094609929	33.30924777162885	0.0	308.193	
C	12.303770094609929	36.48155708321255	0.0	308.026	
C	12.303770094609929	39.65386639479625	0.0	307.38	
C	12.303770094609929	42.82617570637995	0.0	309.143	
C	12.303770094609929	45.99848501796365	0.0	308.456	
C	12.303770094609929	49.17079432954735	0.0	308.186	
C	15.037941226745469	1.58615465579185	0.0	308.793	
C	15.037941226745469	4.75846396737555	0.0	308.793	
C	15.037941226745469	7.93077327895925	0.0	308.236	
C	15.037941226745469	11.10308259054295	0.0	308.899	
C	15.037941226745469	14.27539190212665	0.0	308.517	
C	15.037941226745469	17.44770121371035	0.0	308.399	
C	15.037941226745469	20.62001052529405	0.0	307.219	
C	15.037941226745469	23.79231983687775	0.0	307.914	
C	15.037941226745469	26.96462914846145	0.0	307.926	
C	15.037941226745469	30.13693846004515	0.0	308.329	
C	15.037941226745469	33.30924777162885	0.0	308.022	
C	15.037941226745469	36.48155708321255	0.0	308.578	
C	15.037941226745469	39.65386639479625	0.0	308.005	
C	15.037941226745469	42.82617570637995	0.0	309.277	
C	15.037941226745469	45.99848501796365	0.0	309.104	
C	15.037941226745469	49.17079432954735	0.0	308.712	
C	17.77211235888101	1.58615465579185	0.0	308.579	
C	17.77211235888101	4.75846396737555	0.0	309.256	
C	17.77211235888101	7.93077327895925	0.0	308.436	
C	17.77211235888101	11.10308259054295	0.0	308.543	
C	17.77211235888101	14.27539190212665	0.0	308.753	
C	17.77211235888101	17.44770121371035	0.0	307.67	
C	17.77211235888101	20.62001052529405	0.0	307.726	
C	17.77211235888101	23.79231983687775	0.0	307.662	
C	17.77211235888101	26.96462914846145	0.0	306.806	
C	17.77211235888101	30.13693846004515	0.0	307.01	
C	17.77211235888101	33.30924777162885	0.0	307.609	
C	17.77211235888101	36.48155708321255	0.0	307.526	
C	17.77211235888101	39.65386639479625	0.0	307.24	
C	17.77211235888101	42.82617570637995	0.0	308.412	
C	17.77211235888101	45.99848501796365	0.0	309.306	
C	17.77211235888101	49.17079432954735	0.0	307.823	
C	20.50628349101655	1.58615465579185	0.0	307.185	
C	20.50628349101655	4.75846396737555	0.0	308.771	
C	20.50628349101655	7.93077327895925	0.0	308.781	
C	20.50628349101655	11.10308259054295	0.0	309.734	
C	20.50628349101655	14.27539190212665	0.0	306.583	
C	20.50628349101655	17.44770121371035	0.0	308.084	
C	20.50628349101655	20.62001052529405	0.0	305.95	
C	20.50628349101655	23.79231983687775	0.0	306.421	
C	20.50628349101655	26.96462914846145	0.0	307.31	
C	20.50628349101655	30.13693846004515	0.0	307.696	
C	20.50628349101655	33.30924777162885	0.0	306.667	
C	20.50628349101655	36.48155708321255	0.0	308.016	
C	20.50628349101655	39.65386639479625	0.0	306.226	
C	20.50628349101655	42.82617570637995	0.0	307.264	
C	20.50628349101655	45.99848501796365	0.0	307.995	
C	20.50628349101655	49.17079432954735	0.0	307.982	
C	23.24045462315209	1.58615465579185	0.0	308.737	
C	23.24045462315209	4.75846396737555	0.0	307.891	
C	23.24045462315209	7.93077327895925	0.0	307.352	
C	23.24045462315209	11.10308259054295	0.0	308.493	
C	23.24045462315209	14.27539190212665	0.0	307.249	
C	23.24045462315209	17.44770121371035	0.0	306.796	
C	23.24045462315209	20.62001052529405	0.0	306.89	
C	23.24045462315209	23.79231983687775	0.0	307.245	
C	23.24045462315209	26.96462914846145	0.0	306.787	
C	23.24045462315209	30.13693846004515	0.0	307.7	
C	23.24045462315209	33.30924777162885	0.0	307.978	
C	23.24045462315209	36.48155708321255	0.0	306.679	
C	23.24045462315209	39.65386639479625	0.0	305.885	
C	23.24045462315209	42.82617570637995	0.0	306.463	
C	23.24045462315209	45.99848501796365	0.0	307.751	
C	23.24045462315209	49.17079432954735	0.0	307.584	
C	25.97462575528763	1.58615465579185	0.0	309.069	
C	25.97462575528763	4.75846396737555	0.0	308.419	
C	25.97462575528763	7.93077327895925	0.0	308.265	
C	25.97462575528763	11.10308259054295	0.0	307.214	
C	25.97462575528763	14.27539190212665	0.0	307.203	
C	25.97462575528763	17.44770121371035	0.0	305.734	
C	25.97462575528763	20.62001052529405	0.0	307.41	
C	25.97462575528763	23.79231983687775	0.0	306.803	
C	25.97462575528763	26.96462914846145	0.0	306.955	
C	25.97462575528763	30.13693846004515	0.0	306.679	
C	25.97462575528763	33.30924777162885	0.0	307.83	
C	25.97462575528763	36.48155708321255	0.0	308.415	
C	25.97462575528763	39.65386639479625	0.0	307.754	
C	25.97462575528763	42.82617570637995	0.0	307.842	
C	25.97462575528763	45.99848501796365	0.0	307.467	
C	25.97462575528763	49.17079432954735	0.0	308.586	
C	28.70879688742317	1.58615465579185	0.0	307.894	
C	28.70879688742317	4.75846396737555	0.0	307.85	
C	28.70879688742317	7.93077327895925	0.0	308.393	
C	28.70879688742317	11.10308259054295	0.0	306.672	
C	28.70879688742317	14.27539190212665	0.0	307.147	
C	28.70879688742317	17.44770121371035	0.0	305.453	
C	28.70879688742317	20.62001052529405	0.0	306.301	
C	28.70879688742317	23.79231983687775	0.0	306.675	
C	28.70879688742317	26.96462914846145	0.0	307.095	
C	28.70879688742317	30.13693846004515	0.0	306.9	
C	28.70879688742317	33.30924777162885	0.0	306.215	
C	28.70879688742317	36.48155708321255	0.0	306.91	
C	28.70879688742317	39.65386639479625	0.0	306.705	
C	28.70879688742317	42.82617570637995	0.0	306.471	
C	28.70879688742317	45.99848501796365	0.0	307.947	
C	28.70879688742317	49.17079432954735	0.0	307.433	
C	31.44296801955871	1.58615465579185	0.0	306.999	
C	31.44296801955871	4.75846396737555	0.0	306.129	
C	31.44296801955871	7.93077327895925	0.0	308.333	
C	31.44296801955871	11.10308259054295	0.0	306.146	
C	31.44296801955871	14.27539190212665	0.0	307.782	
C	31.44296801955871	17.44770121371035	0.0	306.461	
C	31.44296801955871	20.62001052529405	0.0	304.277	
C	31.44296801955871	23.79231983687775	0.0	306.765	
C	31.44296801955871	26.96462914846145	0.0	307.582	
C	31.44296801955871	30.13693846004515	0.0	305.924	
C	31.44296801955871	33.30924777162885	0.0	307.115	
C	31.44296801955871	36.48155708321255	0.0	306.894	
C	31.44296801955871	39.65386639479625	0.0	307.162	
C	31.44296801955871	42.82617570637995	0.0	307.101	
C	31.44296801955871	45.99848501796365	0.0	307.196	
C	31.44296801955871	49.17079432954735	0.0	306.137	
C	34.17713915169425	1.58615465579185	0.0	307.258	
C	34.17713915169425	4.75846396737555	0.0	306.83	
C	34.17713915169425	7.93077327895925	0.0	304.888	
C	34.17713915169425	11.10308259054295	0.0	305.097	
C	34.17713915169425	14.27539190212665	0.0	307.017	
C	34.17713915169425	17.44770121371035	0.0	305.642	
C	34.17713915169425	20.62001052529405	0.0	306.866	
C	34.17713915169425	23.79231983687775	0.0	306.948	
C	34.17713915169425	26.96462914846145	0.0	306.741	
C	34.17713915169425	30.13693846004515	0.0	306.64	
C	34.17713915169425	33.30924777162885	0.0	307.397	
C	34.17713915169425	36.48155708321255	0.0	306.801	
C	34.17713915169425	39.65386639479625	0.0	306.242	
C	34.17713915169425	42.82617570637995	0.0	307.231	
C	34.17713915169425	45.99848501796365	0.0	306.034	
C	34.17713915169425	49.17079432954735	0.0	306.01	
C	36.91131028382979	1.58615465579185	0.0	306.178	
C	36.91131028382979	4.75846396737555	0.0	306.032	
C	36.91131028382979	7.93077327895925	0.0	305.483	
C	36.91131028382979	11.10308259054295	0.0	304.97	
C	36.91131028382979	14.27539190212665	0.0	305.464	
C	36.91131028382979	17.44770121371035	0.0	305.108	
C	36.91131028382979	20.62001052529405	0.0	306.697	
C	36.91131028382979	23.79231983687775	0.0	305.772	
C	36.91131028382979	26.96462914846145	0.0	306.529	
C	36.91131028382979	30.13693846004515	0.0	308.385	
C	36.91131028382979	33.30924777162885	0.0	307.085	
C	36.91131028382979	36.48155708321255	0.0	306.95	
C	36.91131028382979	39.65386639479625	0.0	308.118	
C	36.91131028382979	42.82617570637995	0.0	306.067	
C	36.91131028382979	45.99848501796365	0.0	306.201	
C	36.91131028382979	49.17079432954735	0.0	306.553	
C	39.64548141596533	1.58615465579185	0.0	306.93	
C	39.64548141596533	4.75846396737555	0.0	305.759	
C	39.64548141596533	7.93077327895925	0.0	306.733	
C	39.64548141596533	11.10308259054295	0.0	305.765	
C	39.64548141596533	14.27539190212665	0.0	307.013	
C	39.64548141596533	17.44770121371035	0.0	306.038	
C	39.64548141596533	20.62001052529405	0.0	307.392	
C	39.64548141596533	23.79231983687775	0.0	306.571	
C	39.64548141596533	26.96462914846145	0.0	306.637	
C	39.64548141596533	30.13693846004515	0.0	307.361	
C	39.64548141596533	33.30924777162885	0.0	305.096	
C	39.64548141596533	36.48155708321255	0.0	306.14	
C	39.64548141596533	39.65386639479625	0.0	307.83	
C	39.64548141596533	42.82617570637995	0.0	307.966	
C	39.64548141596533	45.99848501796365	0.0	307.16	
C	39.64548141596533	49.17079432954735	0.0	306.583	
C	42.37965254810087	1.58615465579185	0.0	306.079	
C	42.37965254810087	4.75846396737555	0.0	305.69	
C	42.37965254810087	7.93077327895925	0.0	306.723	
C	42.37965254810087	11.10308259054295	0.0	306.034	
C	42.37965254810087	14.27539190212665	0.0	306.992	
C	42.37965254810087	17.44770121371035	0.0	305.14	
C	42.37965254810087	20.62001052529405	0.0	305.903	
C	42.37965254810087	23.79231983687775	0.0	306.673	
C	42.37965254810087	26.96462914846145	0.0	306.572	
C	42.37965254810087	30.13693846004515	0.0	307.04	
C	42.37965254810087	33.30924777162885	0.0	306.235	
C	42.37965254810087	36.48155708321255	0.0	305.595	
C	42.37965254810087	39.65386639479625	0.0	306.218	
C	42.37965254810087	42.82617570637995	0.0	306.437	
C	42.37965254810087	45.99848501796365	0.0	305.675	
C	42.37965254810087	49.17079432954735	0.0	306.483	
C	45.11382368023641	1.58615465579185	0.0	307.094	
C	45.11382368023641	4.75846396737555	0.0	305.871	
C	45.11382368023641	7.93077327895925	0.0	306.373	
C	45.11382368023641	11.10308259054295	0.0	306.691	
C	45.11382368023641	14.27539190212665	0.0	305.333	
C	45.11382368023641	17.44770121371035	0.0	305.518	
C	45.11382368023641	20.62001052529405	0.0	306.972	
C	45.11382368023641	23.79231983687775	0.0	306.64	
C	45.11382368023641	26.96462914846145	0.0	307.054	
C	45.11382368023641	30.13693846004515	0.0	306.229	
C	45.11382368023641	33.30924777162885	0.0	306.07	
C	45.11382368023641	36.48155708321255	0.0	304.825	
C	45.11382368023641	39.65386639479625	0.0	305.644	
C	45.11382368023641	42.82617570637995	0.0	306.67	
C	45.11382368023641	45.99848501796365	0.0	306.392	
C	45.11382368023641	49.17079432954735	0.0	306.662	
C	47.847994812371944	1.58615465579185	0.0	306.371	
C	47.847994812371944	4.75846396737555	0.0	306.603	
C	47.847994812371944	7.93077327895925	0.0	305.526	
C	47.847994812371944	11.10308259054295	0.0	306.6	
C	47.847994812371944	14.27539190212665	0.0	306.786	
C	47.847994812371944	17.44770121371035	0.0	305.433	
C	47.847994812371944	20.62001052529405	0.0	306.237	
C	47.847994812371944	23.79231983687775	0.0	306.421	
C	47.847994812371944	26.96462914846145	0.0	305.612	
C	47.847994812371944	30.13693846004515	0.0	305.634	
C	47.847994812371944	33.30924777162885	0.0	305.453	
C	47.847994812371944	36.48155708321255	0.0	304.693	
C	47.847994812371944	39.65386639479625	0.0	305.139	
C	47.847994812371944	42.82617570637995	0.0	306.922	
C	47.847994812371944	45.99848501796365	0.0	306.847	
C	47.847994812371944	49.17079432954735	0.0	306.851	
C	50.58216594450749	1.58615465579185	0.0	306.784	
C	50.58216594450749	4.75846396737555	0.0	307.815	
C	50.58216594450749	7.93077327895925	0.0	306.416	
C	50.58216594450749	11.10308259054295	0.0	307.822	
C	50.58216594450749	14.27539190212665	0.0	306.649	
C	50.58216594450749	17.44770121371035	0.0	306.812	
C	50.58216594450749	20.62001052529405	0.0	305.839	
C	50.58216594450749	23.79231983687775	0.0	306.604	
C	50.58216594450749	26.96462914846145	0.0	306.621	
C	50.58216594450749	30.13693846004515	0.0	306.181	
C	50.58216594450749	33.30924777162885	0.0	305.674	
C	50.58216594450749	36.48155708321255	0.0	305.507	
C	50.58216594450749	39.65386639479625	0.0	305.882	
C	50.58216594450749	42.82617570637995	0.0	306.778	
C	50.58216594450749	45.99848501796365	0.0	305.941	
C	50.58216594450749	49.17079432954735	0.0	306.116	
C	53.31633707664303	1.58615465579185	0.0	307.205	
C	53.31633707664303	4.75846396737555	0.0	306.6	
C	53.31633707664303	7.93077327895925	0.0	306.803	
C	53.31633707664303	11.10308259054295	0.0	306.378	
C	53.31633707664303	14.27539190212665	0.0	307.062	
C	53.31633707664303	17.44770121371035	0.0	306.436	
C	53.31633707664303	20.62001052529405	0.0	305.874	
C	53.31633707664303	23.79231983687775	0.0	306.698	
C	53.31633707664303	26.96462914846145	0.0	306.759	
C	53.31633707664303	30.13693846004515	0.0	305.246	
C	53.31633707664303	33.30924777162885	0.0	305.32	
C	53.31633707664303	36.48155708321255	0.0	306.235	
C	53.31633707664303	39.65386639479625	0.0	306.856	
C	53.31633707664303	42.82617570637995	0.0	305.763	
C	53.31633707664303	45.99848501796365	0.0	305.581	
C	53.31633707664303	49.17079432954735	0.0	306.835	
C	56.05050820877857	1.58615465579185	0.0	306.124	
C	56.05050820877857	4.75846396737555	0.0	307.132	
C	56.05050820877857	7.93077327895925	0.0	306.404	
C	56.05050820877857	11.10308259054295	0.0	306.628	
C	56.05050820877857	14.27539190212665	0.0	306.769	
C	56.05050820877857	17.44770121371035	0.0	306.839	
C	56.05050820877857	20.62001052529405	0.0	306.879	
C	56.05050820877857	23.79231983687775	0.0	306.368	
C	56.05050820877857	26.96462914846145	0.0	305.991	
C	56.05050820877857	30.13693846004515	0.0	304.941	
C	56.05050820877857	33.30924777162885	0.0	305.768	
C	56.05050820877857	36.48155708321255	0.0	306.447	
C	56.05050820877857	39.65386639479625	0.0	306.976	
C	56.05050820877857	42.82617570637995	0.0	306.399	
C	56.05050820877857	45.99848501796365	0.0	306.886	
C	56.05050820877857	49.17079432954735	0.0	306.503	
C	58.78467934091411	1.58615465579185	0.0	305.212	
C	58.78467934091411	4.75846396737555	0.0	305.286	
C	58.78467934091411	7.93077327895925	0.0	305.593	
C	58.78467934091411	11.10308259054295	0.0	306.94	
C	58.78467934091411	14.27539190212665	0.0	307.281	
C	58.78467934091411	17.44770121371035	0.0	307.021	
C	58.78467934091411	20.62001052529405	0.0	306.44	
C	58.78467934091411	23.79231983687775	0.0	306.01	
C	58.78467934091411	26.96462914846145	0.0	305.717	
C	58.78467934091411	30.13693846004515	0.0	306.726	
C	58.78467934091411	33.30924777162885	0.0	305.88	
C	58.78467934091411	36.48155708321255	0.0	306.762	
C	58.78467934091411	39.65386639479625	0.0	305.797	
C	58.78467934091411	42.82617570637995	0.0	306.286	
C	58.78467934091411	45.99848501796365	0.0	306.227	
C	58.78467934091411	49.17079432954735	0.0	306.913	
C	61.518850473049646	1.58615465579185	0.0	304.7	
C	61.518850473049646	4.75846396737555	0.0	305.28	
C	61.518850473049646	7.93077327895925	0.0	306.151	
C	61.518850473049646	11.10308259054295	0.0	305.931	
C	61.518850473049646	14.27539190212665	0.0	305.542	
C	61.518850473049646	17.44770121371035	0.0	306.355	
C	61.518850473049646	20.62001052529405	0.0	306.625	
C	61.518850473049646	23.79231983687775	0.0	307.453	
C	61.518850473049646	26.96462914846145	0.0	306.202	
C	61.518850473049646	30.13693846004515	0.0	304.804	
C	61.518850473049646	33.30924777162885	0.0	305.682	
C	61.518850473049646	36.48155708321255	0.0	306.721	
C	61.518850473049646	39.65386639479625	0.0	305.408	
C	61.518850473049646	42.82617570637995	0.0	305.864	
C	61.518850473049646	45.99848501796365	0.0	305.659	
C	61.518850473049646	49.17079432954735	0.0	305.182	
C	64.25302160518518	1.58615465579185	0.0	304.716	
C	64.25302160518518	4.75846396737555	0.0	304.587	
C	64.25302160518518	7.93077327895925	0.0	305.775	
C	64.25302160518518	11.10308259054295	0.0	306.593	
C	64.25302160518518	14.27539190212665	0.0	306.159	
C	64.25302160518518	17.44770121371035	0.0	306.068	
C	64.25302160518518	20.62001052529405	0.0	306.929	
C	64.25302160518518	23.79231983687775	0.0	306.594	
C	64.25302160518518	26.96462914846145	0.0	305.73	
C	64.25302160518518	30.13693846004515	0.0	306.653	
C	64.25302160518518	33.30924777162885	0.0	306.73	
C	64.25302160518518	36.48155708321255	0.0	307.043	
C	64.25302160518518	39.65386639479625	0.0	304.265	
C	64.25302160518518	42.82617570637995	0.0	305.337	
C	64.25302160518518	45.99848501796365	0.0	304.839	
C	64.25302160518518	49.17079432954735	0.0	304.329	
C	66.98719273732073	1.58615465579185	0.0	305.505	
C	66.98719273732073	4.75846396737555	0.0	304.578	
C	66.98719273732073	7.93077327895925	0.0	305.631	
C	66.98719273732073	11.10308259054295	0.0	305.401	
C	66.98719273732073	14.27539190212665	0.0	306.484	
C	66.98719273732073	17.44770121371035	0.0	305.025	
C	66.98719273732073	20.62001052529405	0.0	306.745	
C	66.98719273732073	23.79231983687775	0.0	306.855	
C	66.98719273732073	26.96462914846145	0.0	306.221	
C	66.98719273732073	30.13693846004515	0.0	305.162	
C	66.98719273732073	33.30924777162885	0.0	305.029	
C	66.98719273732073	36.48155708321255	0.0	306.287	
C	66.98719273732073	39.65386639479625	0.0	305.134	
C	66.98719273732073	42.82617570637995	0.0	303.451	
C	66.98719273732073	45.99848501796365	0.0	306.395	
C	66.98719273732073	49.17079432954735	0.0	304.683	
C	69.72136386945627	1.58615465579185	0.0	305.722	
C	69.72136386945627	4.75846396737555	0.0	305.771	
C	69.72136386945627	7.93077327895925	0.0	305.885	
C	69.72136386945627	11.10308259054295	0.0	305.975	
C	69.72136386945627	14.27539190212665	0.0	306.815	
C	69.72136386945627	17.44770121371035	0.0	307.472	
C	69.72136386945627	20.62001052529405	0.0	305.673	
C	69.72136386945627	23.79231983687775	0.0	306.558	
C	69.72136386945627	26.96462914846145	0.0	306.117	
C	69.72136386945627	30.13693846004515	0.0	305.712	
C	69.72136386945627	33.30924777162885	0.0	306.277	
C	69.72136386945627	36.48155708321255	0.0	305.972	
C	69.72136386945627	39.65386639479625	0.0	305.53	
C	69.72136386945627	42.82617570637995	0.0	304.916	
C	69.72136386945627	45.99848501796365	0.0	305.22	
C	69.72136386945627	49.17079432954735	0.0	305.082	
C	72.45553500159181	1.58615465579185	0.0	305.134	
C	72.45553500159181	4.75846396737555	0.0	305.51	
C	72.45553500159181	7.93077327895925	0.0	305.248	
C	72.45553500159181	11.10308259054295	0.0	304.811	
C	72.45553500159181	14.27539190212665	0.0	304.833	
C	72.45553500159181	17.44770121371035	0.0	305.607	
C	72.45553500159181	20.62001052529405	0.0	306.526	
C	72.45553500159181	23.79231983687775	0.0	305.189	
C	72.45553500159181	26.96462914846145	0.0	304.991	
C	72.45553500159181	30.13693846004515	0.0	306.375	
C	72.45553500159181	33.30924777162885	0.0	306.871	
C	72.45553500159181	36.48155708321255	0.0	305.674	
C	72.45553500159181	39.65386639479625	0.0	304.891	
C	72.45553500159181	42.82617570637995	0.0	304.757	
C	72.45553500159181	45.99848501796365	0.0	305.022	
C	72.45553500159181	49.17079432954735	0.0	306.54	
C	75.18970613372736	1.58615465579185	0.0	305.568	
C	75.18970613372736	4.75846396737555	0.0	306.352	
C	75.18970613372736	7.93077327895925	0.0	305.551	
C	75.18970613372736	11.10308259054295	0.0	306.528	
C	75.18970613372736	14.27539190212665	0.0	304.491	
C	75.18970613372736	17.44770121371035	0.0	306.449	
C	75.18970613372736	20.62001052529405	0.0	305.583	
C	75.18970613372736	23.79231983687775	0.0	305.974	
C	75.18970613372736	26.96462914846145	0.0	303.241	
C	75.18970613372736	30.13693846004515	0.0	305.596	
C	75.18970613372736	33.30924777162885	0.0	306.499	
C	75.18970613372736	36.48155708321255	0.0	302.938	
C	75.18970613372736	39.65386639479625	0.0	302.427	
C	75.18970613372736	42.82617570637995	0.0	304.298	
C	75.18970613372736	45.99848501796365	0.0	305.036	
C	75.18970613372736	49.17079432954735	0.0	305.16	
C	77.92387726586288	1.58615465579185	0.0	304.987	
C	77.92387726586288	4.75846396737555	0.0	304.487	
C	77.92387726586288	7.93077327895925	0.0	305.918	
C	77.92387726586288	11.10308259054295	0.0	307.365	
C	77.92387726586288	14.27539190212665	0.0	305.917	
C	77.92387726586288	17.44770121371035	0.0	306.267	
C	77.92387726586288	20.62001052529405	0.0	304.059	
C	77.92387726586288	23.79231983687775	0.0	304.227	
C	77.92387726586288	26.96462914846145	0.0	304.001	
C	77.92387726586288	30.13693846004515	0.0	304.652	
C	77.92387726586288	33.30924777162885	0.0	303.778	
C	77.92387726586288	36.48155708321255	0.0	303.895	
C	77.92387726586288	39.65386639479625	0.0	305.403	
C	77.92387726586288	42.82617570637995	0.0	304.725	
C	77.92387726586288	45.99848501796365	0.0	305.83	
C	77.92387726586288	49.17079432954735	0.0	305.856	
C	80.65804839799843	1.58615465579185	0.0	303.21	
C	80.65804839799843	4.75846396737555	0.0	304.327	
C	80.65804839799843	7.93077327895925	0.0	305.787	
C	80.65804839799843	11.10308259054295	0.0	305.922	
C	80.65804839799843	14.27539190212665	0.0	304.549	
C	80.65804839799843	17.44770121371035	0.0	304.913	
C	80.65804839799843	20.62001052529405	0.0	305.558	
C	80.65804839799843	23.79231983687775	0.0	305.059	
C	80.65804839799843	26.96462914846145	0.0	304.865	
C	80.65804839799843	30.13693846004515	0.0	304.638	
C	80.65804839799843	33.30924777162885	0.0	302.746	
C	80.65804839799843	36.48155708321255	0.0	303.187	
C	80.65804839799843	39.65386639479625	0.0	305.61	
C	80.65804839799843	42.82617570637995	0.0	305.577	
C	80.65804839799843	45.99848501796365	0.0	305.9	
C	80.65804839799843	49.17079432954735	0.0	305.015	
C	83.39221953013397	1.58615465579185	0.0	304.536	
C	83.39221953013397	4.75846396737555	0.0	304.962	
C	83.39221953013397	7.93077327895925	0.0	306.213	
C	83.39221953013397	11.10308259054295	0.0	304.577	
C	83.39221953013397	14.27539190212665	0.0	305.167	
C	83.39221953013397	17.44770121371035	0.0	305.497	
C	83.39221953013397	20.62001052529405	0.0	304.682	
C	83.39221953013397	23.79231983687775	0.0	303.961	
C	83.39221953013397	26.96462914846145	0.0	304.995	
C	83.39221953013397	30.13693846004515	0.0	303.668	
C	83.39221953013397	33.30924777162885	0.0	303.412	
C	83.39221953013397	36.48155708321255	0.0	304.186	
C	83.39221953013397	39.65386639479625	0.0	304.609	
C	83.39221953013397	42.82617570637995	0.0	304.756	
C	83.39221953013397	45.99848501796365	0.0	303.79	
C	83.39221953013397	49.17079432954735	0.0	305.429	
C	86.1263906622695	1.58615465579185	0.0	303.669	
C	86.1263906622695	4.75846396737555	0.0	303.431	
C	86.1263906622695	7.93077327895925	0.0	304.141	
C	86.1263906622695	11.10308259054295	0.0	304.639	
C	86.1263906622695	14.27539190212665	0.0	304.697	
C	86.1263906622695	17.44770121371035	0.0	305.14	
C	86.1263906622695	20.62001052529405	0.0	304.468	
C	86.1263906622695	23.79231983687775	0.0	304.638	
C	86.1263906622695	26.96462914846145	0.0	303.933	
C	86.1263906622695	30.13693846004515	0.0	303.967	
C	86.1263906622695	33.30924777162885	0.0	302.445	
C	86.1263906622695	36.48155708321255	0.0	302.605	
C	86.1263906622695	39.65386639479625	0.0	302.436	
C	86.1263906622695	42.82617570637995	0.0	303.665	
C	86.1263906622695	45.99848501796365	0.0	304.098	
C	86.1263906622695	49.17079432954735	0.0	304.464	
C	88.86056179440504	1.58615465579185	0.0	304.517	
C	88.86056179440504	4.75846396737555	0.0	303.931	
C	88.86056179440504	7.93077327895925	0.0	303.996	
C	88.86056179440504	11.10308259054295	0.0	305.133	
C	88.86056179440504	14.27539190212665	0.0	304.727	
C	88.86056179440504	17.44770121371035	0.0	302.464	
C	88.86056179440504	20.62001052529405	0.0	303.475	
C	88.86056179440504	23.79231983687775	0.0	305.344	
C	88.86056179440504	26.96462914846145	0.0	303.664	
C	88.86056179440504	30.13693846004515	0.0	303.744	
C	88.86056179440504	33.30924777162885	0.0	304.096	
C	88.86056179440504	36.48155708321255	0.0	303.853	
C	88.86056179440504	39.65386639479625	0.0	303.635	
C	88.86056179440504	42.82617570637995	0.0	302.688	
C	88.86056179440504	45.99848501796365	0.0	303.725	
C	88.86056179440504	49.17079432954735	0.0	303.712	
C	91.59473292654059	1.58615465579185	0.0	303.658	
C	91.59473292654059	4.75846396737555	0.0	303.766	
C	91.59473292654059	7.93077327895925	0.0	302.217	
C	91.59473292654059	11.10308259054295	0.0	303.648	
C	91.59473292654059	14.27539190212665	0.0	304.567	
C	91.59473292654059	17.44770121371035	0.0	303.626	
C	91.59473292654059	20.62001052529405	0.0	304.126	
C	91.59473292654059	23.79231983687775	0.0	303.067	
C	91.59473292654059	26.96462914846145	0.0	304.241	
C	91.59473292654059	30.13693846004515	0.0	304.059	
C	91.59473292654059	33.30924777162885	0.0	304.303	
C	91.59473292654059	36.48155708321255	0.0	304.021	
C	91.59473292654059	39.65386639479625	0.0	304.077	
C	91.59473292654059	42.82617570637995	0.0	302.469	
C	91.59473292654059	45.99848501796365	0.0	304.595	
C	91.59473292654059	49.17079432954735	0.0	304.839	
C	94.32890405867612	1.58615465579185	0.0	304.033	
C	94.32890405867612	4.75846396737555	0.0	303.528	
C	94.32890405867612	7.93077327895925	0.0	303.178	
C	94.32890405867612	11.10308259054295	0.0	302.863	
C	94.32890405867612	14.27539190212665	0.0	302.491	
C	94.32890405867612	17.44770121371035	0.0	303.565	
C	94.32890405867612	20.62001052529405	0.0	303.762	
C	94.32890405867612	23.79231983687775	0.0	303.297	
C	94.32890405867612	26.96462914846145	0.0	302.981	
C	94.32890405867612	30.13693846004515	0.0	302.971	
C	94.32890405867612	33.30924777162885	0.0	303.573	
C	94.32890405867612	36.48155708321255	0.0	304.102	
C	94.32890405867612	39.65386639479625	0.0	302.909	
C	94.32890405867612	42.82617570637995	0.0	304.013	
C	94.32890405867612	45.99848501796365	0.0	304.633	
C	94.32890405867612	49.17079432954735	0.0	302.878	
C	97.06307519081166	1.58615465579185	0.0	304.626	
C	97.06307519081166	4.75846396737555	0.0	304.405	
C	97.06307519081166	7.93077327895925	0.0	303.935	
C	97.06307519081166	11.10308259054295	0.0	302.792	
C	97.06307519081166	14.27539190212665	0.0	302.32	
C	97.06307519081166	17.44770121371035	0.0	301.462	
C	97.06307519081166	20.62001052529405	0.0	303.066	
C	97.06307519081166	23.79231983687775	0.0	302.85	
C	97.06307519081166	26.96462914846145	0.0	303.283	
C	97.06307519081166	30.13693846004515	0.0	303.286	
C	97.06307519081166	33.30924777162885	0.0	303.516	
C	97.06307519081166	36.48155708321255	0.0	303.372	
C	97.06307519081166	39.65386639479625	0.0	302.908	
C	97.06307519081166	42.82617570637995	0.0	303.117	
C	97.06307519081166	45.99848501796365	0.0	302.612	
C	97.06307519081166	49.17079432954735	0.0	303.54	
C	99.7972463229472	1.58615465579185	0.0	303.749	
C	99.7972463229472	4.75846396737555	0.0	303.535	
C	99.7972463229472	7.93077327895925	0.0	303.152	
C	99.7972463229472	11.10308259054295	0.0	303.101	
C	99.7972463229472	14.27539190212665	0.0	302.602	
C	99.7972463229472	17.44770121371035	0.0	302.85	
C	99.7972463229472	20.62001052529405	0.0	302.87	
C	99.7972463229472	23.79231983687775	0.0	302.646	
C	99.7972463229472	26.96462914846145	0.0	302.44	
C	99.7972463229472	30.13693846004515	0.0	303.057	
C	99.7972463229472	33.30924777162885	0.0	304.177	
C	99.7972463229472	36.48155708321255	0.0	304.218	
C	99.7972463229472	39.65386639479625	0.0	301.708	
C	99.7972463229472	42.82617570637995	0.0	302.123	
C	99.7972463229472	45.99848501796365	0.0	303.595	
C	99.7972463229472	49.17079432954735	0.0	303.318	
C	102.53141745508275	1.58615465579185	0.0	303.099	