LAMMPS data file. msi2lmp v3.9.9 / 05 Nov 2018 / CGCMM for 25_4x8_nanodot2period

    384 atoms
    768 bonds
   2688 angles
   7680 dihedrals
    256 impropers

   3 atom types
   2 bond types
   5 angle types
   4 dihedral types
   2 improper types

    -0.250734074    42.965265926 xlo xhi
    -0.021266057    24.930733943 ylo yhi
   -23.245333354    26.754666646 zlo zhi

Masses

   1   0.000000 # S_3+2
   2   0.000000 # Mo6+6
   3   0.000000 # Se3+2

Pair Coeffs # lj/cut/coul/long

   1   0.0000000000   0.0000000000 # S_3+2
   2   0.0000000000   0.0000000000 # Mo6+6
   3   0.0000000000   0.0000000000 # Se3+2

Bond Coeffs # harmonic

   1     0.0000     0.0000 # S_3+2-Mo6+6
   2     0.0000     0.0000 # Mo6+6-Se3+2

Angle Coeffs # harmonic

   1     0.0000     0.0000 # Mo6+6-S_3+2-Mo6+6
   2     0.0000     0.0000 # S_3+2-Mo6+6-S_3+2
   3     0.0000     0.0000 # Se3+2-Mo6+6-Se3+2
   4     0.0000     0.0000 # S_3+2-Mo6+6-Se3+2
   5     0.0000     0.0000 # Mo6+6-Se3+2-Mo6+6

Dihedral Coeffs # harmonic

  1     0.0000   0   0 # Mo6+6-S_3+2-Mo6+6-S_3+2
  2     0.0000   0   0 # Mo6+6-S_3+2-Mo6+6-Se3+2
  3     0.0000   0   0 # Se3+2-Mo6+6-Se3+2-Mo6+6
  4     0.0000   0   0 # S_3+2-Mo6+6-Se3+2-Mo6+6

Improper Coeffs # cvff

    1     0.0000   0   0 # Mo6+6-S_3+2-Mo6+6-Mo6+6
    2     0.0000   0   0 # Mo6+6-Se3+2-Mo6+6-Mo6+6

Atoms # full

      1      1   1  0.000000     0.799765927     2.318233935     3.314166387   0   0   0 # S_3+2
      2      1   1  0.000000     0.799765927     2.318233935     0.195166906   0   0   0 # S_3+2
      3      1   2  0.000000     4.400765998     2.318233935     1.754666646   0   0   0 # Mo6+6
      4      1   2  0.000000     1.699765903     3.877233951     1.754666646   0   0   0 # Mo6+6
      5      1   1  0.000000     3.500765902     3.877233951     3.314166387   0   0   0 # S_3+2
      6      1   1  0.000000     3.500765902     3.877233951     0.195166906   0   0   0 # S_3+2
      7      2   2  0.000000     1.699765903     0.758233951     1.754666646   0   0   0 # Mo6+6
      8      2   1  0.000000     3.500765902     0.758233951     3.314166387   0   0   0 # S_3+2
      9      2   1  0.000000     3.500765902     0.758233951     0.195166906   0   0   0 # S_3+2
     10      3   1  0.000000     6.201765927     2.318233935     3.314166387   0   0   0 # S_3+2
     11      3   1  0.000000     6.201765927     2.318233935     0.195166906   0   0   0 # S_3+2
     12      3   2  0.000000     9.802765998     2.318233935     1.754666646   0   0   0 # Mo6+6
     13      3   2  0.000000     7.101765903     3.877233951     1.754666646   0   0   0 # Mo6+6
     14      3   1  0.000000     8.902765902     3.877233951     3.314166387   0   0   0 # S_3+2
     15      3   1  0.000000     8.902765902     3.877233951     0.195166906   0   0   0 # S_3+2
     16      4   2  0.000000     7.101765903     0.758233951     1.754666646   0   0   0 # Mo6+6
     17      4   1  0.000000     8.902765902     0.758233951     3.314166387   0   0   0 # S_3+2
     18      4   1  0.000000     8.902765902     0.758233951     0.195166906   0   0   0 # S_3+2
     19      5   1  0.000000    11.603765927     2.318233935     3.314166387   0   0   0 # S_3+2
     20      5   1  0.000000    11.603765927     2.318233935     0.195166906   0   0   0 # S_3+2
     21      5   2  0.000000    15.204765998     2.318233935     1.754666646   0   0   0 # Mo6+6
     22      5   2  0.000000    12.503765903     3.877233951     1.754666646   0   0   0 # Mo6+6
     23      5   1  0.000000    14.304765902     3.877233951     3.314166387   0   0   0 # S_3+2
     24      5   1  0.000000    14.304765902     3.877233951     0.195166906   0   0   0 # S_3+2
     25      6   2  0.000000    12.503765903     0.758233951     1.754666646   0   0   0 # Mo6+6
     26      6   1  0.000000    14.304765902     0.758233951     3.314166387   0   0   0 # S_3+2
     27      6   1  0.000000    14.304765902     0.758233951     0.195166906   0   0   0 # S_3+2
     28      7   1  0.000000    17.005765927     2.318233935     3.314166387   0   0   0 # S_3+2
     29      7   1  0.000000    17.005765927     2.318233935     0.195166906   0   0   0 # S_3+2
     30      7   2  0.000000    20.606765998     2.318233935     1.754666646   0   0   0 # Mo6+6
     31      7   2  0.000000    17.905765903     3.877233951     1.754666646   0   0   0 # Mo6+6
     32      7   1  0.000000    19.706765902     3.877233951     3.314166387   0   0   0 # S_3+2
     33      7   1  0.000000    19.706765902     3.877233951     0.195166906   0   0   0 # S_3+2
     34      8   2  0.000000    17.905765903     0.758233951     1.754666646   0   0   0 # Mo6+6
     35      8   1  0.000000    19.706765902     0.758233951     3.314166387   0   0   0 # S_3+2
     36      8   1  0.000000    19.706765902     0.758233951     0.195166906   0   0   0 # S_3+2
     37      9   1  0.000000     0.799765927     5.437233935     3.314166387   0   0   0 # S_3+2
     38      9   1  0.000000     0.799765927     5.437233935     0.195166906   0   0   0 # S_3+2
     39      9   2  0.000000     4.400765998     5.437233935     1.754666646   0   0   0 # Mo6+6
     40      9   2  0.000000     1.699765903     6.996233951     1.754666646   0   0   0 # Mo6+6
     41      9   1  0.000000     3.500765902     6.996233951     3.314166387   0   0   0 # S_3+2
     42      9   1  0.000000     3.500765902     6.996233951     0.195166906   0   0   0 # S_3+2
     43     10   1  0.000000     6.201765927     5.437233935     3.314166387   0   0   0 # S_3+2
     44     10   1  0.000000     6.201765927     5.437233935     0.195166906   0   0   0 # S_3+2
     45     10   2  0.000000     9.802765998     5.437233935     1.754666646   0   0   0 # Mo6+6
     46     10   2  0.000000     7.101765903     6.996233951     1.754666646   0   0   0 # Mo6+6
     47     10   1  0.000000     8.902765902     6.996233951     3.314166387   0   0   0 # S_3+2
     48     10   1  0.000000     8.902765902     6.996233951     0.195166906   0   0   0 # S_3+2
     49     11   1  0.000000    11.603765927     5.437233935     3.314166387   0   0   0 # S_3+2
     50     11   1  0.000000    11.603765927     5.437233935     0.195166906   0   0   0 # S_3+2
     51     11   2  0.000000    15.204765998     5.437233935     1.754666646   0   0   0 # Mo6+6
     52     11   2  0.000000    12.503765903     6.996233951     1.754666646   0   0   0 # Mo6+6
     53     11   3  0.000000    14.304765902     6.996233951     3.314166387   0   0   0 # Se3+2
     54     11   3  0.000000    14.304765902     6.996233951     0.195166906   0   0   0 # Se3+2
     55     12   1  0.000000    17.005765927     5.437233935     3.314166387   0   0   0 # S_3+2
     56     12   1  0.000000    17.005765927     5.437233935     0.195166906   0   0   0 # S_3+2
     57     12   2  0.000000    20.606765998     5.437233935     1.754666646   0   0   0 # Mo6+6
     58     12   2  0.000000    17.905765903     6.996233951     1.754666646   0   0   0 # Mo6+6
     59     12   1  0.000000    19.706765902     6.996233951     3.314166387   0   0   0 # S_3+2
     60     12   1  0.000000    19.706765902     6.996233951     0.195166906   0   0   0 # S_3+2
     61     13   1  0.000000     0.799765927     8.556233935     3.314166387   0   0   0 # S_3+2
     62     13   1  0.000000     0.799765927     8.556233935     0.195166906   0   0   0 # S_3+2
     63     13   2  0.000000     4.400765998     8.556233935     1.754666646   0   0   0 # Mo6+6
     64     13   2  0.000000     1.699765903    10.115233951     1.754666646   0   0   0 # Mo6+6
     65     13   1  0.000000     3.500765902    10.115233951     3.314166387   0   0   0 # S_3+2
     66     13   1  0.000000     3.500765902    10.115233951     0.195166906   0   0   0 # S_3+2
     67     14   1  0.000000     6.201765927     8.556233935     3.314166387   0   0   0 # S_3+2
     68     14   1  0.000000     6.201765927     8.556233935     0.195166906   0   0   0 # S_3+2
     69     14   2  0.000000     9.802765998     8.556233935     1.754666646   0   0   0 # Mo6+6
     70     14   2  0.000000     7.101765903    10.115233951     1.754666646   0   0   0 # Mo6+6
     71     14   3  0.000000     8.902765902    10.115233951     3.314166387   0   0   0 # Se3+2
     72     14   3  0.000000     8.902765902    10.115233951     0.195166906   0   0   0 # Se3+2
     73     15   3  0.000000    11.603765927     8.556233935     3.314166387   0   0   0 # Se3+2
     74     15   3  0.000000    11.603765927     8.556233935     0.195166906   0   0   0 # Se3+2
     75     15   2  0.000000    15.204765998     8.556233935     1.754666646   0   0   0 # Mo6+6
     76     15   2  0.000000    12.503765903    10.115233951     1.754666646   0   0   0 # Mo6+6
     77     15   3  0.000000    14.304765902    10.115233951     3.314166387   0   0   0 # Se3+2
     78     15   3  0.000000    14.304765902    10.115233951     0.195166906   0   0   0 # Se3+2
     79     16   1  0.000000    17.005765927     8.556233935     3.314166387   0   0   0 # S_3+2
     80     16   1  0.000000    17.005765927     8.556233935     0.195166906   0   0   0 # S_3+2
     81     16   2  0.000000    20.606765998     8.556233935     1.754666646   0   0   0 # Mo6+6
     82     16   2  0.000000    17.905765903    10.115233951     1.754666646   0   0   0 # Mo6+6
     83     16   1  0.000000    19.706765902    10.115233951     3.314166387   0   0   0 # S_3+2
     84     16   1  0.000000    19.706765902    10.115233951     0.195166906   0   0   0 # S_3+2
     85     17   1  0.000000     0.799765927    11.675233935     3.314166387   0   0   0 # S_3+2
     86     17   1  0.000000     0.799765927    11.675233935     0.195166906   0   0   0 # S_3+2
     87     17   2  0.000000     4.400765998    11.675233935     1.754666646   0   0   0 # Mo6+6
     88     17   2  0.000000     1.699765903    13.234233951     1.754666646   0   0   0 # Mo6+6
     89     17   3  0.000000     3.500765902    13.234233951     3.314166387   0   0   0 # Se3+2
     90     17   3  0.000000     3.500765902    13.234233951     0.195166906   0   0   0 # Se3+2
     91     18   3  0.000000     6.201765927    11.675233935     3.314166387   0   0   0 # Se3+2
     92     18   3  0.000000     6.201765927    11.675233935     0.195166906   0   0   0 # Se3+2
     93     18   2  0.000000     9.802765998    11.675233935     1.754666646   0   0   0 # Mo6+6
     94     18   2  0.000000     7.101765903    13.234233951     1.754666646   0   0   0 # Mo6+6
     95     18   3  0.000000     8.902765902    13.234233951     3.314166387   0   0   0 # Se3+2
     96     18   3  0.000000     8.902765902    13.234233951     0.195166906   0   0   0 # Se3+2
     97     19   3  0.000000    11.603765927    11.675233935     3.314166387   0   0   0 # Se3+2
     98     19   3  0.000000    11.603765927    11.675233935     0.195166906   0   0   0 # Se3+2
     99     19   2  0.000000    15.204765998    11.675233935     1.754666646   0   0   0 # Mo6+6
    100     19   2  0.000000    12.503765903    13.234233951     1.754666646   0   0   0 # Mo6+6
    101     19   3  0.000000    14.304765902    13.234233951     3.314166387   0   0   0 # Se3+2
    102     19   3  0.000000    14.304765902    13.234233951     0.195166906   0   0   0 # Se3+2
    103     20   1  0.000000    17.005765927    11.675233935     3.314166387   0   0   0 # S_3+2
    104     20   1  0.000000    17.005765927    11.675233935     0.195166906   0   0   0 # S_3+2
    105     20   2  0.000000    20.606765998    11.675233935     1.754666646   0   0   0 # Mo6+6
    106     20   2  0.000000    17.905765903    13.234233951     1.754666646   0   0   0 # Mo6+6
    107     20   1  0.000000    19.706765902    13.234233951     3.314166387   0   0   0 # S_3+2
    108     20   1  0.000000    19.706765902    13.234233951     0.195166906   0   0   0 # S_3+2
    109     21   1  0.000000     0.799765927    14.794233935     3.314166387   0   0   0 # S_3+2
    110     21   1  0.000000     0.799765927    14.794233935     0.195166906   0   0   0 # S_3+2
    111     21   2  0.000000     4.400765998    14.794233935     1.754666646   0   0   0 # Mo6+6
    112     21   2  0.000000     1.699765903    16.353233951     1.754666646   0   0   0 # Mo6+6
    113     21   1  0.000000     3.500765902    16.353233951     3.314166387   0   0   0 # S_3+2
    114     21   1  0.000000     3.500765902    16.353233951     0.195166906   0   0   0 # S_3+2
    115     22   3  0.000000     6.201765927    14.794233935     3.314166387   0   0   0 # Se3+2
    116     22   3  0.000000     6.201765927    14.794233935     0.195166906   0   0   0 # Se3+2
    117     22   2  0.000000     9.802765998    14.794233935     1.754666646   0   0   0 # Mo6+6
    118     22   2  0.000000     7.101765903    16.353233951     1.754666646   0   0   0 # Mo6+6
    119     22   3  0.000000     8.902765902    16.353233951     3.314166387   0   0   0 # Se3+2
    120     22   3  0.000000     8.902765902    16.353233951     0.195166906   0   0   0 # Se3+2
    121     23   3  0.000000    11.603765927    14.794233935     3.314166387   0   0   0 # Se3+2
    122     23   3  0.000000    11.603765927    14.794233935     0.195166906   0   0   0 # Se3+2
    123     23   2  0.000000    15.204765998    14.794233935     1.754666646   0   0   0 # Mo6+6
    124     23   2  0.000000    12.503765903    16.353233951     1.754666646   0   0   0 # Mo6+6
    125     23   3  0.000000    14.304765902    16.353233951     3.314166387   0   0   0 # Se3+2
    126     23   3  0.000000    14.304765902    16.353233951     0.195166906   0   0   0 # Se3+2
    127     24   1  0.000000    17.005765927    14.794233935     3.314166387   0   0   0 # S_3+2
    128     24   1  0.000000    17.005765927    14.794233935     0.195166906   0   0   0 # S_3+2
    129     24   2  0.000000    20.606765998    14.794233935     1.754666646   0   0   0 # Mo6+6
    130     24   2  0.000000    17.905765903    16.353233951     1.754666646   0   0   0 # Mo6+6
    131     24   1  0.000000    19.706765902    16.353233951     3.314166387   0   0   0 # S_3+2
    132     24   1  0.000000    19.706765902    16.353233951     0.195166906   0   0   0 # S_3+2
    133     25   1  0.000000     0.799765927    17.913233935     3.314166387   0   0   0 # S_3+2
    134     25   1  0.000000     0.799765927    17.913233935     0.195166906   0   0   0 # S_3+2
    135     25   2  0.000000     4.400765998    17.913233935     1.754666646   0   0   0 # Mo6+6
    136     25   2  0.000000     1.699765903    19.472233951     1.754666646   0   0   0 # Mo6+6
    137     25   1  0.000000     3.500765902    19.472233951     3.314166387   0   0   0 # S_3+2
    138     25   1  0.000000     3.500765902    19.472233951     0.195166906   0   0   0 # S_3+2
    139     26   1  0.000000     6.201765927    17.913233935     3.314166387   0   0   0 # S_3+2
    140     26   1  0.000000     6.201765927    17.913233935     0.195166906   0   0   0 # S_3+2
    141     26   2  0.000000     9.802765998    17.913233935     1.754666646   0   0   0 # Mo6+6
    142     26   2  0.000000     7.101765903    19.472233951     1.754666646   0   0   0 # Mo6+6
    143     26   1  0.000000     8.902765902    19.472233951     3.314166387   0   0   0 # S_3+2
    144     26   1  0.000000     8.902765902    19.472233951     0.195166906   0   0   0 # S_3+2
    145     27   3  0.000000    11.603765927    17.913233935     3.314166387   0   0   0 # Se3+2
    146     27   3  0.000000    11.603765927    17.913233935     0.195166906   0   0   0 # Se3+2
    147     27   2  0.000000    15.204765998    17.913233935     1.754666646   0   0   0 # Mo6+6
    148     27   2  0.000000    12.503765903    19.472233951     1.754666646   0   0   0 # Mo6+6
    149     27   3  0.000000    14.304765902    19.472233951     3.314166387   0   0   0 # Se3+2
    150     27   3  0.000000    14.304765902    19.472233951     0.195166906   0   0   0 # Se3+2
    151     28   1  0.000000    17.005765927    17.913233935     3.314166387   0   0   0 # S_3+2
    152     28   1  0.000000    17.005765927    17.913233935     0.195166906   0   0   0 # S_3+2
    153     28   2  0.000000    20.606765998    17.913233935     1.754666646   0   0   0 # Mo6+6
    154     28   2  0.000000    17.905765903    19.472233951     1.754666646   0   0   0 # Mo6+6
    155     28   1  0.000000    19.706765902    19.472233951     3.314166387   0   0   0 # S_3+2
    156     28   1  0.000000    19.706765902    19.472233951     0.195166906   0   0   0 # S_3+2
    157     29   1  0.000000     0.799765927    21.032233935     3.314166387   0   0   0 # S_3+2
    158     29   1  0.000000     0.799765927    21.032233935     0.195166906   0   0   0 # S_3+2
    159     29   2  0.000000     4.400765998    21.032233935     1.754666646   0   0   0 # Mo6+6
    160     29   2  0.000000     1.699765903    22.591233951     1.754666646   0   0   0 # Mo6+6
    161     29   1  0.000000     3.500765902    22.591233951     3.314166387   0   0   0 # S_3+2
    162     29   1  0.000000     3.500765902    22.591233951     0.195166906   0   0   0 # S_3+2
    163     30   1  0.000000     6.201765927    21.032233935     3.314166387   0   0   0 # S_3+2
    164     30   1  0.000000     6.201765927    21.032233935     0.195166906   0   0   0 # S_3+2
    165     30   2  0.000000     9.802765998    21.032233935     1.754666646   0   0   0 # Mo6+6
    166     30   2  0.000000     7.101765903    22.591233951     1.754666646   0   0   0 # Mo6+6
    167     30   1  0.000000     8.902765902    22.591233951     3.314166387   0   0   0 # S_3+2
    168     30   1  0.000000     8.902765902    22.591233951     0.195166906   0   0   0 # S_3+2
    169     31   1  0.000000    11.603765927    21.032233935     3.314166387   0   0   0 # S_3+2
    170     31   1  0.000000    11.603765927    21.032233935     0.195166906   0   0   0 # S_3+2
    171     31   2  0.000000    15.204765998    21.032233935     1.754666646   0   0   0 # Mo6+6
    172     31   2  0.000000    12.503765903    22.591233951     1.754666646   0   0   0 # Mo6+6
    173     31   1  0.000000    14.304765902    22.591233951     3.314166387   0   0   0 # S_3+2
    174     31   1  0.000000    14.304765902    22.591233951     0.195166906   0   0   0 # S_3+2
    175     32   1  0.000000    17.005765927    21.032233935     3.314166387   0   0   0 # S_3+2
    176     32   1  0.000000    17.005765927    21.032233935     0.195166906   0   0   0 # S_3+2
    177     32   2  0.000000    20.606765998    21.032233935     1.754666646   0   0   0 # Mo6+6
    178     32   2  0.000000    17.905765903    22.591233951     1.754666646   0   0   0 # Mo6+6
    179     32   1  0.000000    19.706765902    22.591233951     3.314166387   0   0   0 # S_3+2
    180     32   1  0.000000    19.706765902    22.591233951     0.195166906   0   0   0 # S_3+2
    181     33   1  0.000000     0.799765927    24.151233935     3.314166387   0   0   0 # S_3+2
    182     33   1  0.000000     0.799765927    24.151233935     0.195166906   0   0   0 # S_3+2
    183     33   2  0.000000     4.400765998    24.151233935     1.754666646   0   0   0 # Mo6+6
    184     34   1  0.000000     6.201765927    24.151233935     3.314166387   0   0   0 # S_3+2
    185     34   1  0.000000     6.201765927    24.151233935     0.195166906   0   0   0 # S_3+2
    186     34   2  0.000000     9.802765998    24.151233935     1.754666646   0   0   0 # Mo6+6
    187     35   1  0.000000    11.603765927    24.151233935     3.314166387   0   0   0 # S_3+2
    188     35   1  0.000000    11.603765927    24.151233935     0.195166906   0   0   0 # S_3+2
    189     35   2  0.000000    15.204765998    24.151233935     1.754666646   0   0   0 # Mo6+6
    190     36   1  0.000000    17.005765927    24.151233935     3.314166387   0   0   0 # S_3+2
    191     36   1  0.000000    17.005765927    24.151233935     0.195166906   0   0   0 # S_3+2
    192     36   2  0.000000    20.606765998    24.151233935     1.754666646   0   0   0 # Mo6+6
    193     37   1  0.000000    22.407765927     2.318233935     3.314166387   0   0   0 # S_3+2
    194     37   1  0.000000    22.407765927     2.318233935     0.195166906   0   0   0 # S_3+2
    195     37   2  0.000000    26.008765998     2.318233935     1.754666646   0   0   0 # Mo6+6
    196     37   2  0.000000    23.307765903     3.877233951     1.754666646   0   0   0 # Mo6+6
    197     37   1  0.000000    25.108765902     3.877233951     3.314166387   0   0   0 # S_3+2
    198     37   1  0.000000    25.108765902     3.877233951     0.195166906   0   0   0 # S_3+2
    199     38   2  0.000000    23.307765903     0.758233951     1.754666646   0   0   0 # Mo6+6
    200     38   1  0.000000    25.108765902     0.758233951     3.314166387   0   0   0 # S_3+2
    201     38   1  0.000000    25.108765902     0.758233951     0.195166906   0   0   0 # S_3+2
    202     39   1  0.000000    27.809765927     2.318233935     3.314166387   0   0   0 # S_3+2
    203     39   1  0.000000    27.809765927     2.318233935     0.195166906   0   0   0 # S_3+2
    204     39   2  0.000000    31.410765998     2.318233935     1.754666646   0   0   0 # Mo6+6
    205     39   2  0.000000    28.709765903     3.877233951     1.754666646   0   0   0 # Mo6+6
    206     39   1  0.000000    30.510765902     3.877233951     3.314166387   0   0   0 # S_3+2
    207     39   1  0.000000    30.510765902     3.877233951     0.195166906   0   0   0 # S_3+2
    208     40   2  0.000000    28.709765903     0.758233951     1.754666646   0   0   0 # Mo6+6
    209     40   1  0.000000    30.510765902     0.758233951     3.314166387   0   0   0 # S_3+2
    210     40   1  0.000000    30.510765902     0.758233951     0.195166906   0   0   0 # S_3+2
    211     41   1  0.000000    33.211765927     2.318233935     3.314166387   0   0   0 # S_3+2
    212     41   1  0.000000    33.211765927     2.318233935     0.195166906   0   0   0 # S_3+2
    213     41   2  0.000000    36.812765998     2.318233935     1.754666646   0   0   0 # Mo6+6
    214     41   2  0.000000    34.111765903     3.877233951     1.754666646   0   0   0 # Mo6+6
    215     41   1  0.000000    35.912765902     3.877233951     3.314166387   0   0   0 # S_3+2
    216     41   1  0.000000    35.912765902     3.877233951     0.195166906   0   0   0 # S_3+2
    217     42   2  0.000000    34.111765903     0.758233951     1.754666646   0   0   0 # Mo6+6
    218     42   1  0.000000    35.912765902     0.758233951     3.314166387   0   0   0 # S_3+2
    219     42   1  0.000000    35.912765902     0.758233951     0.195166906   0   0   0 # S_3+2
    220     43   1  0.000000    38.613765927     2.318233935     3.314166387   0   0   0 # S_3+2
    221     43   1  0.000000    38.613765927     2.318233935     0.195166906   0   0   0 # S_3+2
    222     43   2  0.000000    42.214765998     2.318233935     1.754666646   0   0   0 # Mo6+6
    223     43   2  0.000000    39.513765903     3.877233951     1.754666646   0   0   0 # Mo6+6
    224     43   1  0.000000    41.314765902     3.877233951     3.314166387   0   0   0 # S_3+2
    225     43   1  0.000000    41.314765902     3.877233951     0.195166906   0   0   0 # S_3+2
    226     44   2  0.000000    39.513765903     0.758233951     1.754666646   0   0   0 # Mo6+6
    227     44   1  0.000000    41.314765902     0.758233951     3.314166387   0   0   0 # S_3+2
    228     44   1  0.000000    41.314765902     0.758233951     0.195166906   0   0   0 # S_3+2
    229     45   1  0.000000    22.407765927     5.437233935     3.314166387   0   0   0 # S_3+2
    230     45   1  0.000000    22.407765927     5.437233935     0.195166906   0   0   0 # S_3+2
    231     45   2  0.000000    26.008765998     5.437233935     1.754666646   0   0   0 # Mo6+6
    232     45   2  0.000000    23.307765903     6.996233951     1.754666646   0   0   0 # Mo6+6
    233     45   1  0.000000    25.108765902     6.996233951     3.314166387   0   0   0 # S_3+2
    234     45   1  0.000000    25.108765902     6.996233951     0.195166906   0   0   0 # S_3+2
    235     46   1  0.000000    27.809765927     5.437233935     3.314166387   0   0   0 # S_3+2
    236     46   1  0.000000    27.809765927     5.437233935     0.195166906   0   0   0 # S_3+2
    237     46   2  0.000000    31.410765998     5.437233935     1.754666646   0   0   0 # Mo6+6
    238     46   2  0.000000    28.709765903     6.996233951     1.754666646   0   0   0 # Mo6+6
    239     46   1  0.000000    30.510765902     6.996233951     3.314166387   0   0   0 # S_3+2
    240     46   1  0.000000    30.510765902     6.996233951     0.195166906   0   0   0 # S_3+2
    241     47   1  0.000000    33.211765927     5.437233935     3.314166387   0   0   0 # S_3+2
    242     47   1  0.000000    33.211765927     5.437233935     0.195166906   0   0   0 # S_3+2
    243     47   2  0.000000    36.812765998     5.437233935     1.754666646   0   0   0 # Mo6+6
    244     47   2  0.000000    34.111765903     6.996233951     1.754666646   0   0   0 # Mo6+6
    245     47   3  0.000000    35.912765902     6.996233951     3.314166387   0   0   0 # Se3+2
    246     47   3  0.000000    35.912765902     6.996233951     0.195166906   0   0   0 # Se3+2
    247     48   1  0.000000    38.613765927     5.437233935     3.314166387   0   0   0 # S_3+2
    248     48   1  0.000000    38.613765927     5.437233935     0.195166906   0   0   0 # S_3+2
    249     48   2  0.000000    42.214765998     5.437233935     1.754666646   0   0   0 # Mo6+6
    250     48   2  0.000000    39.513765903     6.996233951     1.754666646   0   0   0 # Mo6+6
    251     48   1  0.000000    41.314765902     6.996233951     3.314166387   0   0   0 # S_3+2
    252     48   1  0.000000    41.314765902     6.996233951     0.195166906   0   0   0 # S_3+2
    253     49   1  0.000000    22.407765927     8.556233935     3.314166387   0   0   0 # S_3+2
    254     49   1  0.000000    22.407765927     8.556233935     0.195166906   0   0   0 # S_3+2
    255     49   2  0.000000    26.008765998     8.556233935     1.754666646   0   0   0 # Mo6+6
    256     49   2  0.000000    23.307765903    10.115233951     1.754666646   0   0   0 # Mo6+6
    257     49   1  0.000000    25.108765902    10.115233951     3.314166387   0   0   0 # S_3+2
    258     49   1  0.000000    25.108765902    10.115233951     0.195166906   0   0   0 # S_3+2
    259     50   1  0.000000    27.809765927     8.556233935     3.314166387   0   0   0 # S_3+2
    260     50   1  0.000000    27.809765927     8.556233935     0.195166906   0   0   0 # S_3+2
    261     50   2  0.000000    31.410765998     8.556233935     1.754666646   0   0   0 # Mo6+6
    262     50   2  0.000000    28.709765903    10.115233951     1.754666646   0   0   0 # Mo6+6
    263     50   3  0.000000    30.510765902    10.115233951     3.314166387   0   0   0 # Se3+2
    264     50   3  0.000000    30.510765902    10.115233951     0.195166906   0   0   0 # Se3+2
    265     51   3  0.000000    33.211765927     8.556233935     3.314166387   0   0   0 # Se3+2
    266     51   3  0.000000    33.211765927     8.556233935     0.195166906   0   0   0 # Se3+2
    267     51   2  0.000000    36.812765998     8.556233935     1.754666646   0   0   0 # Mo6+6
    268     51   2  0.000000    34.111765903    10.115233951     1.754666646   0   0   0 # Mo6+6
    269     51   3  0.000000    35.912765902    10.115233951     3.314166387   0   0   0 # Se3+2
    270     51   3  0.000000    35.912765902    10.115233951     0.195166906   0   0   0 # Se3+2
    271     52   1  0.000000    38.613765927     8.556233935     3.314166387   0   0   0 # S_3+2
    272     52   1  0.000000    38.613765927     8.556233935     0.195166906   0   0   0 # S_3+2
    273     52   2  0.000000    42.214765998     8.556233935     1.754666646   0   0   0 # Mo6+6
    274     52   2  0.000000    39.513765903    10.115233951     1.754666646   0   0   0 # Mo6+6
    275     52   1  0.000000    41.314765902    10.115233951     3.314166387   0   0   0 # S_3+2
    276     52   1  0.000000    41.314765902    10.115233951     0.195166906   0   0   0 # S_3+2
    277     53   1  0.000000    22.407765927    11.675233935     3.314166387   0   0   0 # S_3+2
    278     53   1  0.000000    22.407765927    11.675233935     0.195166906   0   0   0 # S_3+2
    279     53   2  0.000000    26.008765998    11.675233935     1.754666646   0   0   0 # Mo6+6
    280     53   2  0.000000    23.307765903    13.234233951     1.754666646   0   0   0 # Mo6+6
    281     53   3  0.000000    25.108765902    13.234233951     3.314166387   0   0   0 # Se3+2
    282     53   3  0.000000    25.108765902    13.234233951     0.195166906   0   0   0 # Se3+2
    283     54   3  0.000000    27.809765927    11.675233935     3.314166387   0   0   0 # Se3+2
    284     54   3  0.000000    27.809765927    11.675233935     0.195166906   0   0   0 # Se3+2
    285     54   2  0.000000    31.410765998    11.675233935     1.754666646   0   0   0 # Mo6+6
    286     54   2  0.000000    28.709765903    13.234233951     1.754666646   0   0   0 # Mo6+6
    287     54   3  0.000000    30.510765902    13.234233951     3.314166387   0   0   0 # Se3+2
    288     54   3  0.000000    30.510765902    13.234233951     0.195166906   0   0   0 # Se3+2
    289     55   3  0.000000    33.211765927    11.675233935     3.314166387   0   0   0 # Se3+2
    290     55   3  0.000000    33.211765927    11.675233935     0.195166906   0   0   0 # Se3+2
    291     55   2  0.000000    36.812765998    11.675233935     1.754666646   0   0   0 # Mo6+6
    292     55   2  0.000000    34.111765903    13.234233951     1.754666646   0   0   0 # Mo6+6
    293     55   3  0.000000    35.912765902    13.234233951     3.314166387   0   0   0 # Se3+2
    294     55   3  0.000000    35.912765902    13.234233951     0.195166906   0   0   0 # Se3+2
    295     56   1  0.000000    38.613765927    11.675233935     3.314166387   0   0   0 # S_3+2