LAMMPS data file. msi2lmp v3.9.9 / 05 Nov 2018 / CGCMM for 33_3x8
   7200 atoms

   2 atom types

    -1.505085741   581.910914259 xlo xhi
     0.321814777    50.225814777 ylo yhi
   -23.245333354    26.754666646 zlo zhi

Masses

   1  32.064000 # s
   2  95.940000 # Mo

Atoms # full

      1      1   1  0.000000    27.809765927     2.318233935     3.314166387   0   0   0 # s
      2      1   1  0.000000    27.809765927     2.318233935     0.195166906   0   0   0 # s
      3      1   2  0.000000    31.410765998     2.318233935     1.754666646   0   0   0 # Mo
      4      1   2  0.000000    28.709765903     3.877233951     1.754666646   0   0   0 # Mo
      5      1   1  0.000000    30.510765902     3.877233951     3.314166387   0   0   0 # s
      6      1   1  0.000000    30.510765902     3.877233951     0.195166906   0   0   0 # s
      7      2   2  0.000000    28.709765903     0.758233951     1.754666646   0   0   0 # Mo
      8      2   1  0.000000    30.510765902     0.758233951     3.314166387   0   0   0 # s
      9      2   1  0.000000    30.510765902     0.758233951     0.195166906   0   0   0 # s
     10      3   1  0.000000    33.211765927     2.318233935     3.314166387   0   0   0 # s
     11      3   1  0.000000    33.211765927     2.318233935     0.195166906   0   0   0 # s
     12      3   2  0.000000    36.812765998     2.318233935     1.754666646   0   0   0 # Mo
     13      3   2  0.000000    34.111765903     3.877233951     1.754666646   0   0   0 # Mo
     14      3   1  0.000000    35.912765902     3.877233951     3.314166387   0   0   0 # s
     15      3   1  0.000000    35.912765902     3.877233951     0.195166906   0   0   0 # s
     16      4   2  0.000000    34.111765903     0.758233951     1.754666646   0   0   0 # Mo
     17      4   1  0.000000    35.912765902     0.758233951     3.314166387   0   0   0 # s
     18      4   1  0.000000    35.912765902     0.758233951     0.195166906   0   0   0 # s
     19      5   1  0.000000    38.613765927     2.318233935     3.314166387   0   0   0 # s
     20      5   1  0.000000    38.613765927     2.318233935     0.195166906   0   0   0 # s
     21      5   2  0.000000    42.214765998     2.318233935     1.754666646   0   0   0 # Mo
     22      5   2  0.000000    39.513765903     3.877233951     1.754666646   0   0   0 # Mo
     23      5   1  0.000000    41.314765902     3.877233951     3.314166387   0   0   0 # s
     24      5   1  0.000000    41.314765902     3.877233951     0.195166906   0   0   0 # s
     25      6   2  0.000000    39.513765903     0.758233951     1.754666646   0   0   0 # Mo
     26      6   1  0.000000    41.314765902     0.758233951     3.314166387   0   0   0 # s
     27      6   1  0.000000    41.314765902     0.758233951     0.195166906   0   0   0 # s
     28      7   1  0.000000    27.809765927     5.437233935     3.314166387   0   0   0 # s
     29      7   1  0.000000    27.809765927     5.437233935     0.195166906   0   0   0 # s
     30      7   2  0.000000    31.410765998     5.437233935     1.754666646   0   0   0 # Mo
     31      7   2  0.000000    28.709765903     6.996233951     1.754666646   0   0   0 # Mo
     32      7   1  0.000000    30.510765902     6.996233951     3.314166387   0   0   0 # s
     33      7   1  0.000000    30.510765902     6.996233951     0.195166906   0   0   0 # s
     34      8   1  0.000000    33.211765927     5.437233935     3.314166387   0   0   0 # s
     35      8   1  0.000000    33.211765927     5.437233935     0.195166906   0   0   0 # s
     36      9   2  0.000000    42.214765998     5.437233935     1.754666646   0   0   0 # Mo
     37      9   1  0.000000    41.314765902     6.996233951     3.314166387   0   0   0 # s
     38      9   1  0.000000    41.314765902     6.996233951     0.195166906   0   0   0 # s
     39     10   1  0.000000    27.809765927     8.556233935     3.314166387   0   0   0 # s
     40     10   1  0.000000    27.809765927     8.556233935     0.195166906   0   0   0 # s
     41     11   2  0.000000    42.214765998     8.556233935     1.754666646   0   0   0 # Mo
     42     11   1  0.000000    41.314765902    10.115233951     3.314166387   0   0   0 # s
     43     11   1  0.000000    41.314765902    10.115233951     0.195166906   0   0   0 # s
     44     12   2  0.000000    42.214765998    11.675233935     1.754666646   0   0   0 # Mo
     45     12   1  0.000000    41.314765902    13.234233951     3.314166387   0   0   0 # s
     46     12   1  0.000000    41.314765902    13.234233951     0.195166906   0   0   0 # s
     47     13   1  0.000000    27.809765927    14.794233935     3.314166387   0   0   0 # s
     48     13   1  0.000000    27.809765927    14.794233935     0.195166906   0   0   0 # s
     49     13   2  0.000000    28.709765903    16.353233951     1.754666646   0   0   0 # Mo
     50     13   1  0.000000    30.510765902    16.353233951     3.314166387   0   0   0 # s
     51     13   1  0.000000    30.510765902    16.353233951     0.195166906   0   0   0 # s
     52     14   2  0.000000    42.214765998    14.794233935     1.754666646   0   0   0 # Mo
     53     14   1  0.000000    41.314765902    16.353233951     3.314166387   0   0   0 # s
     54     14   1  0.000000    41.314765902    16.353233951     0.195166906   0   0   0 # s
     55     15   1  0.000000    27.809765927    17.913233935     3.314166387   0   0   0 # s
     56     15   1  0.000000    27.809765927    17.913233935     0.195166906   0   0   0 # s
     57     15   2  0.000000    31.410765998    17.913233935     1.754666646   0   0   0 # Mo
     58     15   2  0.000000    28.709765903    19.472233951     1.754666646   0   0   0 # Mo
     59     15   1  0.000000    30.510765902    19.472233951     3.314166387   0   0   0 # s
     60     15   1  0.000000    30.510765902    19.472233951     0.195166906   0   0   0 # s
     61     16   1  0.000000    33.211765927    17.913233935     3.314166387   0   0   0 # s
     62     16   1  0.000000    33.211765927    17.913233935     0.195166906   0   0   0 # s
     63     16   2  0.000000    34.111765903    19.472233951     1.754666646   0   0   0 # Mo
     64     16   1  0.000000    35.912765902    19.472233951     3.314166387   0   0   0 # s
     65     16   1  0.000000    35.912765902    19.472233951     0.195166906   0   0   0 # s
     66     17   2  0.000000    42.214765998    17.913233935     1.754666646   0   0   0 # Mo
     67     17   2  0.000000    39.513765903    19.472233951     1.754666646   0   0   0 # Mo
     68     17   1  0.000000    41.314765902    19.472233951     3.314166387   0   0   0 # s
     69     17   1  0.000000    41.314765902    19.472233951     0.195166906   0   0   0 # s
     70     18   1  0.000000    27.809765927    21.032233935     3.314166387   0   0   0 # s
     71     18   1  0.000000    27.809765927    21.032233935     0.195166906   0   0   0 # s
     72     18   2  0.000000    31.410765998    21.032233935     1.754666646   0   0   0 # Mo
     73     18   2  0.000000    28.709765903    22.591233951     1.754666646   0   0   0 # Mo
     74     18   1  0.000000    30.510765902    22.591233951     3.314166387   0   0   0 # s
     75     18   1  0.000000    30.510765902    22.591233951     0.195166906   0   0   0 # s
     76     19   1  0.000000    33.211765927    21.032233935     3.314166387   0   0   0 # s
     77     19   1  0.000000    33.211765927    21.032233935     0.195166906   0   0   0 # s
     78     19   2  0.000000    36.812765998    21.032233935     1.754666646   0   0   0 # Mo
     79     19   2  0.000000    34.111765903    22.591233951     1.754666646   0   0   0 # Mo
     80     19   1  0.000000    35.912765902    22.591233951     3.314166387   0   0   0 # s
     81     19   1  0.000000    35.912765902    22.591233951     0.195166906   0   0   0 # s
     82     20   1  0.000000    38.613765927    21.032233935     3.314166387   0   0   0 # s
     83     20   1  0.000000    38.613765927    21.032233935     0.195166906   0   0   0 # s
     84     20   2  0.000000    42.214765998    21.032233935     1.754666646   0   0   0 # Mo
     85     20   2  0.000000    39.513765903    22.591233951     1.754666646   0   0   0 # Mo
     86     20   1  0.000000    41.314765902    22.591233951     3.314166387   0   0   0 # s
     87     20   1  0.000000    41.314765902    22.591233951     0.195166906   0   0   0 # s
     88     21   1  0.000000    27.809765927    24.151233935     3.314166387   0   0   0 # s
     89     21   1  0.000000    27.809765927    24.151233935     0.195166906   0   0   0 # s
     90     21   2  0.000000    31.410765998    24.151233935     1.754666646   0   0   0 # Mo
     91     21   2  0.000000    28.709765903    25.710233951     1.754666646   0   0   0 # Mo
     92     21   1  0.000000    30.510765902    25.710233951     3.314166387   0   0   0 # s
     93     21   1  0.000000    30.510765902    25.710233951     0.195166906   0   0   0 # s
     94     22   1  0.000000    33.211765927    24.151233935     3.314166387   0   0   0 # s
     95     22   1  0.000000    33.211765927    24.151233935     0.195166906   0   0   0 # s
     96     22   2  0.000000    36.812765998    24.151233935     1.754666646   0   0   0 # Mo
     97     22   2  0.000000    34.111765903    25.710233951     1.754666646   0   0   0 # Mo
     98     22   1  0.000000    35.912765902    25.710233951     3.314166387   0   0   0 # s
     99     22   1  0.000000    35.912765902    25.710233951     0.195166906   0   0   0 # s
    100     23   1  0.000000    38.613765927    24.151233935     3.314166387   0   0   0 # s
    101     23   1  0.000000    38.613765927    24.151233935     0.195166906   0   0   0 # s
    102     23   2  0.000000    42.214765998    24.151233935     1.754666646   0   0   0 # Mo
    103     23   2  0.000000    39.513765903    25.710233951     1.754666646   0   0   0 # Mo
    104     23   1  0.000000    41.314765902    25.710233951     3.314166387   0   0   0 # s
    105     23   1  0.000000    41.314765902    25.710233951     0.195166906   0   0   0 # s
    106     24   1  0.000000    44.015765927     2.318233935     3.314166387   0   0   0 # s
    107     24   1  0.000000    44.015765927     2.318233935     0.195166906   0   0   0 # s
    108     24   2  0.000000    47.616765998     2.318233935     1.754666646   0   0   0 # Mo
    109     24   2  0.000000    44.915765903     3.877233951     1.754666646   0   0   0 # Mo
    110     24   1  0.000000    46.716765902     3.877233951     3.314166387   0   0   0 # s
    111     24   1  0.000000    46.716765902     3.877233951     0.195166906   0   0   0 # s
    112     25   2  0.000000    44.915765903     0.758233951     1.754666646   0   0   0 # Mo
    113     25   1  0.000000    46.716765902     0.758233951     3.314166387   0   0   0 # s
    114     25   1  0.000000    46.716765902     0.758233951     0.195166906   0   0   0 # s
    115     26   1  0.000000    49.417765927     2.318233935     3.314166387   0   0   0 # s
    116     26   1  0.000000    49.417765927     2.318233935     0.195166906   0   0   0 # s
    117     26   2  0.000000    53.018765998     2.318233935     1.754666646   0   0   0 # Mo
    118     26   2  0.000000    50.317765903     3.877233951     1.754666646   0   0   0 # Mo
    119     26   1  0.000000    52.118765902     3.877233951     3.314166387   0   0   0 # s
    120     26   1  0.000000    52.118765902     3.877233951     0.195166906   0   0   0 # s
    121     27   2  0.000000    50.317765903     0.758233951     1.754666646   0   0   0 # Mo
    122     27   1  0.000000    52.118765902     0.758233951     3.314166387   0   0   0 # s
    123     27   1  0.000000    52.118765902     0.758233951     0.195166906   0   0   0 # s
    124     28   1  0.000000    54.819765927     2.318233935     3.314166387   0   0   0 # s
    125     28   1  0.000000    54.819765927     2.318233935     0.195166906   0   0   0 # s
    126     28   2  0.000000    58.420765998     2.318233935     1.754666646   0   0   0 # Mo
    127     28   2  0.000000    55.719765903     3.877233951     1.754666646   0   0   0 # Mo
    128     28   1  0.000000    57.520765902     3.877233951     3.314166387   0   0   0 # s
    129     28   1  0.000000    57.520765902     3.877233951     0.195166906   0   0   0 # s
    130     29   2  0.000000    55.719765903     0.758233951     1.754666646   0   0   0 # Mo
    131     29   1  0.000000    57.520765902     0.758233951     3.314166387   0   0   0 # s
    132     29   1  0.000000    57.520765902     0.758233951     0.195166906   0   0   0 # s
    133     30   1  0.000000    44.015765927     5.437233935     3.314166387   0   0   0 # s
    134     30   1  0.000000    44.015765927     5.437233935     0.195166906   0   0   0 # s
    135     30   2  0.000000    47.616765998     5.437233935     1.754666646   0   0   0 # Mo
    136     30   2  0.000000    44.915765903     6.996233951     1.754666646   0   0   0 # Mo
    137     30   1  0.000000    46.716765902     6.996233951     3.314166387   0   0   0 # s
    138     30   1  0.000000    46.716765902     6.996233951     0.195166906   0   0   0 # s
    139     31   1  0.000000    49.417765927     5.437233935     3.314166387   0   0   0 # s
    140     31   1  0.000000    49.417765927     5.437233935     0.195166906   0   0   0 # s
    141     32   2  0.000000    58.420765998     5.437233935     1.754666646   0   0   0 # Mo
    142     32   1  0.000000    57.520765902     6.996233951     3.314166387   0   0   0 # s
    143     32   1  0.000000    57.520765902     6.996233951     0.195166906   0   0   0 # s
    144     33   1  0.000000    44.015765927     8.556233935     3.314166387   0   0   0 # s
    145     33   1  0.000000    44.015765927     8.556233935     0.195166906   0   0   0 # s
    146     34   2  0.000000    58.420765998     8.556233935     1.754666646   0   0   0 # Mo
    147     34   1  0.000000    57.520765902    10.115233951     3.314166387   0   0   0 # s
    148     34   1  0.000000    57.520765902    10.115233951     0.195166906   0   0   0 # s
    149     35   2  0.000000    58.420765998    11.675233935     1.754666646   0   0   0 # Mo
    150     35   1  0.000000    57.520765902    13.234233951     3.314166387   0   0   0 # s
    151     35   1  0.000000    57.520765902    13.234233951     0.195166906   0   0   0 # s
    152     36   1  0.000000    44.015765927    14.794233935     3.314166387   0   0   0 # s
    153     36   1  0.000000    44.015765927    14.794233935     0.195166906   0   0   0 # s
    154     36   2  0.000000    44.915765903    16.353233951     1.754666646   0   0   0 # Mo
    155     36   1  0.000000    46.716765902    16.353233951     3.314166387   0   0   0 # s
    156     36   1  0.000000    46.716765902    16.353233951     0.195166906   0   0   0 # s
    157     37   2  0.000000    58.420765998    14.794233935     1.754666646   0   0   0 # Mo
    158     37   1  0.000000    57.520765902    16.353233951     3.314166387   0   0   0 # s
    159     37   1  0.000000    57.520765902    16.353233951     0.195166906   0   0   0 # s
    160     38   1  0.000000    44.015765927    17.913233935     3.314166387   0   0   0 # s
    161     38   1  0.000000    44.015765927    17.913233935     0.195166906   0   0   0 # s
    162     38   2  0.000000    47.616765998    17.913233935     1.754666646   0   0   0 # Mo
    163     38   2  0.000000    44.915765903    19.472233951     1.754666646   0   0   0 # Mo
    164     38   1  0.000000    46.716765902    19.472233951     3.314166387   0   0   0 # s
    165     38   1  0.000000    46.716765902    19.472233951     0.195166906   0   0   0 # s
    166     39   1  0.000000    49.417765927    17.913233935     3.314166387   0   0   0 # s
    167     39   1  0.000000    49.417765927    17.913233935     0.195166906   0   0   0 # s
    168     39   2  0.000000    50.317765903    19.472233951     1.754666646   0   0   0 # Mo
    169     39   1  0.000000    52.118765902    19.472233951     3.314166387   0   0   0 # s
    170     39   1  0.000000    52.118765902    19.472233951     0.195166906   0   0   0 # s
    171     40   2  0.000000    58.420765998    17.913233935     1.754666646   0   0   0 # Mo
    172     40   2  0.000000    55.719765903    19.472233951     1.754666646   0   0   0 # Mo
    173     40   1  0.000000    57.520765902    19.472233951     3.314166387   0   0   0 # s
    174     40   1  0.000000    57.520765902    19.472233951     0.195166906   0   0   0 # s
    175     41   1  0.000000    44.015765927    21.032233935     3.314166387   0   0   0 # s
    176     41   1  0.000000    44.015765927    21.032233935     0.195166906   0   0   0 # s
    177     41   2  0.000000    47.616765998    21.032233935     1.754666646   0   0   0 # Mo
    178     41   2  0.000000    44.915765903    22.591233951     1.754666646   0   0   0 # Mo
    179     41   1  0.000000    46.716765902    22.591233951     3.314166387   0   0   0 # s
    180     41   1  0.000000    46.716765902    22.591233951     0.195166906   0   0   0 # s
    181     42   1  0.000000    49.417765927    21.032233935     3.314166387   0   0   0 # s
    182     42   1  0.000000    49.417765927    21.032233935     0.195166906   0   0   0 # s
    183     42   2  0.000000    53.018765998    21.032233935     1.754666646   0   0   0 # Mo
    184     42   2  0.000000    50.317765903    22.591233951     1.754666646   0   0   0 # Mo
    185     42   1  0.000000    52.118765902    22.591233951     3.314166387   0   0   0 # s
    186     42   1  0.000000    52.118765902    22.591233951     0.195166906   0   0   0 # s
    187     43   1  0.000000    54.819765927    21.032233935     3.314166387   0   0   0 # s
    188     43   1  0.000000    54.819765927    21.032233935     0.195166906   0   0   0 # s
    189     43   2  0.000000    58.420765998    21.032233935     1.754666646   0   0   0 # Mo
    190     43   2  0.000000    55.719765903    22.591233951     1.754666646   0   0   0 # Mo
    191     43   1  0.000000    57.520765902    22.591233951     3.314166387   0   0   0 # s
    192     43   1  0.000000    57.520765902    22.591233951     0.195166906   0   0   0 # s
    193     44   1  0.000000    44.015765927    24.151233935     3.314166387   0   0   0 # s
    194     44   1  0.000000    44.015765927    24.151233935     0.195166906   0   0   0 # s
    195     44   2  0.000000    47.616765998    24.151233935     1.754666646   0   0   0 # Mo
    196     44   2  0.000000    44.915765903    25.710233951     1.754666646   0   0   0 # Mo
    197     44   1  0.000000    46.716765902    25.710233951     3.314166387   0   0   0 # s
    198     44   1  0.000000    46.716765902    25.710233951     0.195166906   0   0   0 # s
    199     45   1  0.000000    49.417765927    24.151233935     3.314166387   0   0   0 # s
    200     45   1  0.000000    49.417765927    24.151233935     0.195166906   0   0   0 # s
    201     45   2  0.000000    53.018765998    24.151233935     1.754666646   0   0   0 # Mo
    202     45   2  0.000000    50.317765903    25.710233951     1.754666646   0   0   0 # Mo
    203     45   1  0.000000    52.118765902    25.710233951     3.314166387   0   0   0 # s
    204     45   1  0.000000    52.118765902    25.710233951     0.195166906   0   0   0 # s
    205     46   1  0.000000    54.819765927    24.151233935     3.314166387   0   0   0 # s
    206     46   1  0.000000    54.819765927    24.151233935     0.195166906   0   0   0 # s
    207     46   2  0.000000    58.420765998    24.151233935     1.754666646   0   0   0 # Mo
    208     46   2  0.000000    55.719765903    25.710233951     1.754666646   0   0   0 # Mo
    209     46   1  0.000000    57.520765902    25.710233951     3.314166387   0   0   0 # s
    210     46   1  0.000000    57.520765902    25.710233951     0.195166906   0   0   0 # s
    211     47   1  0.000000    60.221765927     2.318233935     3.314166387   0   0   0 # s
    212     47   1  0.000000    60.221765927     2.318233935     0.195166906   0   0   0 # s
    213     47   2  0.000000    63.822765998     2.318233935     1.754666646   0   0   0 # Mo
    214     47   2  0.000000    61.121765903     3.877233951     1.754666646   0   0   0 # Mo
    215     47   1  0.000000    62.922765902     3.877233951     3.314166387   0   0   0 # s
    216     47   1  0.000000    62.922765902     3.877233951     0.195166906   0   0   0 # s
    217     48   2  0.000000    61.121765903     0.758233951     1.754666646   0   0   0 # Mo
    218     48   1  0.000000    62.922765902     0.758233951     3.314166387   0   0   0 # s
    219     48   1  0.000000    62.922765902     0.758233951     0.195166906   0   0   0 # s
    220     49   1  0.000000    65.623765927     2.318233935     3.314166387   0   0   0 # s
    221     49   1  0.000000    65.623765927     2.318233935     0.195166906   0   0   0 # s
    222     49   2  0.000000    69.224765998     2.318233935     1.754666646   0   0   0 # Mo
    223     49   2  0.000000    66.523765903     3.877233951     1.754666646   0   0   0 # Mo
    224     49   1  0.000000    68.324765902     3.877233951     3.314166387   0   0   0 # s
    225     49   1  0.000000    68.324765902     3.877233951     0.195166906   0   0   0 # s
    226     50   2  0.000000    66.523765903     0.758233951     1.754666646   0   0   0 # Mo
    227     50   1  0.000000    68.324765902     0.758233951     3.314166387   0   0   0 # s
    228     50   1  0.000000    68.324765902     0.758233951     0.195166906   0   0   0 # s
    229     51   1  0.000000    71.025765927     2.318233935     3.314166387   0   0   0 # s
    230     51   1  0.000000    71.025765927     2.318233935     0.195166906   0   0   0 # s
    231     51   2  0.000000    74.626765998     2.318233935     1.754666646   0   0   0 # Mo
    232     51   2  0.000000    71.925765903     3.877233951     1.754666646   0   0   0 # Mo
    233     51   1  0.000000    73.726765902     3.877233951     3.314166387   0   0   0 # s
    234     51   1  0.000000    73.726765902     3.877233951     0.195166906   0   0   0 # s
    235     52   2  0.000000    71.925765903     0.758233951     1.754666646   0   0   0 # Mo
    236     52   1  0.000000    73.726765902     0.758233951     3.314166387   0   0   0 # s
    237     52   1  0.000000    73.726765902     0.758233951     0.195166906   0   0   0 # s
    238     53   1  0.000000    60.221765927     5.437233935     3.314166387   0   0   0 # s
    239     53   1  0.000000    60.221765927     5.437233935     0.195166906   0   0   0 # s
    240     53   2  0.000000    63.822765998     5.437233935     1.754666646   0   0   0 # Mo
    241     53   2  0.000000    61.121765903     6.996233951     1.754666646   0   0   0 # Mo
    242     53   1  0.000000    62.922765902     6.996233951     3.314166387   0   0   0 # s
    243     53   1  0.000000    62.922765902     6.996233951     0.195166906   0   0   0 # s
    244     54   1  0.000000    65.623765927     5.437233935     3.314166387   0   0   0 # s
    245     54   1  0.000000    65.623765927     5.437233935     0.195166906   0   0   0 # s
    246     55   2  0.000000    74.626765998     5.437233935     1.754666646   0   0   0 # Mo
    247     55   1  0.000000    73.726765902     6.996233951     3.314166387   0   0   0 # s
    248     55   1  0.000000    73.726765902     6.996233951     0.195166906   0   0   0 # s
    249     56   1  0.000000    60.221765927     8.556233935     3.314166387   0   0   0 # s
    250     56   1  0.000000    60.221765927     8.556233935     0.195166906   0   0   0 # s
    251     57   2  0.000000    74.626765998     8.556233935     1.754666646   0   0   0 # Mo
    252     57   1  0.000000    73.726765902    10.115233951     3.314166387   0   0   0 # s
    253     57   1  0.000000    73.726765902    10.115233951     0.195166906   0   0   0 # s
    254     58   2  0.000000    74.626765998    11.675233935     1.754666646   0   0   0 # Mo
    255     58   1  0.000000    73.726765902    13.234233951     3.314166387   0   0   0 # s
    256     58   1  0.000000    73.726765902    13.234233951     0.195166906   0   0   0 # s
    257     59   1  0.000000    60.221765927    14.794233935     3.314166387   0   0   0 # s
    258     59   1  0.000000    60.221765927    14.794233935     0.195166906   0   0   0 # s
    259     59   2  0.000000    61.121765903    16.353233951     1.754666646   0   0   0 # Mo
    260     59   1  0.000000    62.922765902    16.353233951     3.314166387   0   0   0 # s
    261     59   1  0.000000    62.922765902    16.353233951     0.195166906   0   0   0 # s
    262     60   2  0.000000    74.626765998    14.794233935     1.754666646   0   0   0 # Mo
    263     60   1  0.000000    73.726765902    16.353233951     3.314166387   0   0   0 # s
    264     60   1  0.000000    73.726765902    16.353233951     0.195166906   0   0   0 # s
    265     61   1  0.000000    60.221765927    17.913233935     3.314166387   0   0   0 # s
    266     61   1  0.000000    60.221765927    17.913233935     0.195166906   0   0   0 # s
    267     61   2  0.000000    63.822765998    17.913233935     1.754666646   0   0   0 # Mo
    268     61   2  0.000000    61.121765903    19.472233951     1.754666646   0   0   0 # Mo
    269     61   1  0.000000    62.922765902    19.472233951     3.314166387   0   0   0 # s
    270     61   1  0.000000    62.922765902    19.472233951     0.195166906   0   0   0 # s
    271     62   1  0.000000    65.623765927    17.913233935     3.314166387   0   0   0 # s
    272     62   1  0.000000    65.623765927    17.913233935     0.195166906   0   0   0 # s
    273     62   2  0.000000    66.523765903    19.472233951     1.754666646   0   0   0 # Mo
    274     62   1  0.000000    68.324765902    19.472233951     3.314166387   0   0   0 # s
    275     62   1  0.000000    68.324765902    19.472233951     0.195166906   0   0   0 # s
    276     63   2  0.000000    74.626765998    17.913233935     1.754666646   0   0   0 # Mo
    277     63   2  0.000000    71.925765903    19.472233951     1.754666646   0   0   0 # Mo
    278     63   1  0.000000    73.726765902    19.472233951     3.314166387   0   0   0 # s
    279     63   1  0.000000    73.726765902    19.472233951     0.195166906   0   0   0 # s
    280     64   1  0.000000    60.221765927    21.032233935     3.314166387   0   0   0 # s
    281     64   1  0.000000    60.221765927    21.032233935     0.195166906   0   0   0 # s
    282     64   2  0.000000    63.822765998    21.032233935     1.754666646   0   0   0 # Mo
    283     64   2  0.000000    61.121765903    22.591233951     1.754666646   0   0   0 # Mo
    284     64   1  0.000000    62.922765902    22.591233951     3.314166387   0   0   0 # s
    285     64   1  0.000000    62.922765902    22.591233951     0.195166906   0   0   0 # s
    286     65   1  0.000000    65.623765927    21.032233935     3.314166387   0   0   0 # s
    287     65   1  0.000000    65.623765927    21.032233935     0.195166906   0   0   0 # s
    288     65   2  0.000000    69.224765998    21.032233935     1.754666646   0   0   0 # Mo
    289     65   2  0.000000    66.523765903    22.591233951     1.754666646   0   0   0 # Mo
    290     65   1  0.000000    68.324765902    22.591233951     3.314166387   0   0   0 # s
    291     65   1  0.000000    68.324765902    22.591233951     0.195166906   0   0   0 # s
    292     66   1  0.000000    71.025765927    21.032233935     3.314166387   0   0   0 # s
    293     66   1  0.000000    71.025765927    21.032233935     0.195166906   0   0   0 # s
    294     66   2  0.000000    74.626765998    21.032233935     1.754666646   0   0   0 # Mo
    295     66   2  0.000000    71.925765903    22.591233951     1.754666646   0   0   0 # Mo
    296     66   1  0.000000    73.726765902    22.591233951     3.314166387   0   0   0 # s
    297     66   1  0.000000    73.726765902    22.591233951     0.195166906   0   0   0 # s
    298     67   1  0.000000    60.221765927    24.151233935     3.314166387   0   0   0 # s
    299     67   1  0.000000    60.221765927    24.151233935     0.195166906   0   0   0 # s
    300     67   2  0.000000    63.822765998    24.151233935     1.754666646   0   0   0 # Mo
    301     67   2  0.000000    61.121765903    25.710233951     1.754666646   0   0   0 # Mo
    302     67   1  0.000000    62.922765902    25.710233951     3.314166387   0   0   0 # s
    303     67   1  0.000000    62.922765902    25.710233951     0.195166906   0   0   0 # s
    304     68   1  0.000000    65.623765927    24.151233935     3.314166387   0   0   0 # s
    305     68   1  0.000000    65.623765927    24.151233935     0.195166906   0   0   0 # s
    306     68   2  0.000000    69.224765998    24.151233935     1.754666646   0   0   0 # Mo
    307     68   2  0.000000    66.523765903    25.710233951     1.754666646   0   0   0 # Mo
    308     68   1  0.000000    68.324765902    25.710233951     3.314166387   0   0   0 # s
    309     68   1  0.000000    68.324765902    25.710233951     0.195166906   0   0   0 # s
    310     69   1  0.000000    71.025765927    24.151233935     3.314166387   0   0   0 # s
    311     69   1  0.000000    71.025765927    24.151233935     0.195166906   0   0   0 # s
    312     69   2  0.000000    74.626765998    24.151233935     1.754666646   0   0   0 # Mo
    313     69   2  0.000000    71.925765903    25.710233951     1.754666646   0   0   0 # Mo
    314     69   1  0.000000    73.726765902    25.710233951     3.314166387   0   0   0 # s
    315     69   1  0.000000    73.726765902    25.710233951     0.195166906   0   0   0 # s
    316     70   1  0.000000    76.427765927     2.318233935     3.314166387   0   0   0 # s
    317     70   1  0.000000    76.427765927     2.318233935     0.195166906   0   0   0 # s
    318     70   2  0.000000    80.028765998     2.318233935     1.754666646   0   0   0 # Mo