LAMMPS data file. msi2lmp v3.9.9 / 05 Nov 2018 / CGCMM for 5x8MoS2_MoSe2

   9600 atoms
      0 bonds
      0 angles
      0 dihedrals
      0 impropers

   3 atom types
   0 bond types
   0 angle types
   0 dihedral types
   0 improper types

    -1.050500000   539.149500000 xlo xhi
     0.778499870    50.682499870 ylo yhi
   -23.245333354    26.754666646 zlo zhi

Masses

   1   32.060000 # S
   2   95.940000 # Mo
   3   209.900000 # S209

Atoms # full

      1      1   1  0.000000     0.000000000     3.117999863     3.314166387   0   0   0 # S_3+2
      2      1   1  0.000000     0.000000000     3.117999863     0.195166906   0   0   0 # S_3+2
      3      1   2  0.000000     3.601000071     3.117999863     1.754666646   0   0   0 # Mo6+6
      4      1   2  0.000000     0.899999976     4.676999878     1.754666646   0   0   0 # Mo6+6
      5      1   1  0.000000     2.700999975     4.676999878     3.314166387   0   0   0 # S_3+2
      6      1   1  0.000000     2.700999975     4.676999878     0.195166906   0   0   0 # S_3+2
      7      2   2  0.000000     0.899999976     1.557999878     1.754666646   0   0   0 # Mo6+6
      8      2   1  0.000000     2.700999975     1.557999878     3.314166387   0   0   0 # S_3+2
      9      2   1  0.000000     2.700999975     1.557999878     0.195166906   0   0   0 # S_3+2
     10      3   1  0.000000     5.402000000     3.117999863     3.314166387   0   0   0 # S_3+2
     11      3   1  0.000000     5.402000000     3.117999863     0.195166906   0   0   0 # S_3+2
     12      3   2  0.000000     9.003000071     3.117999863     1.754666646   0   0   0 # Mo6+6
     13      3   2  0.000000     6.301999976     4.676999878     1.754666646   0   0   0 # Mo6+6
     14      3   1  0.000000     8.102999975     4.676999878     3.314166387   0   0   0 # S_3+2
     15      3   1  0.000000     8.102999975     4.676999878     0.195166906   0   0   0 # S_3+2
     16      4   2  0.000000     6.301999976     1.557999878     1.754666646   0   0   0 # Mo6+6
     17      4   1  0.000000     8.102999975     1.557999878     3.314166387   0   0   0 # S_3+2
     18      4   1  0.000000     8.102999975     1.557999878     0.195166906   0   0   0 # S_3+2
     19      5   1  0.000000    10.804000000     3.117999863     3.314166387   0   0   0 # S_3+2
     20      5   1  0.000000    10.804000000     3.117999863     0.195166906   0   0   0 # S_3+2
     21      5   2  0.000000    14.405000071     3.117999863     1.754666646   0   0   0 # Mo6+6
     22      5   2  0.000000    11.703999976     4.676999878     1.754666646   0   0   0 # Mo6+6
     23      5   1  0.000000    13.504999975     4.676999878     3.314166387   0   0   0 # S_3+2
     24      5   1  0.000000    13.504999975     4.676999878     0.195166906   0   0   0 # S_3+2
     25      6   2  0.000000    11.703999976     1.557999878     1.754666646   0   0   0 # Mo6+6
     26      6   1  0.000000    13.504999975     1.557999878     3.314166387   0   0   0 # S_3+2
     27      6   1  0.000000    13.504999975     1.557999878     0.195166906   0   0   0 # S_3+2
     28      7   1  0.000000    16.206000000     3.117999863     3.314166387   0   0   0 # S_3+2
     29      7   1  0.000000    16.206000000     3.117999863     0.195166906   0   0   0 # S_3+2
     30      7   2  0.000000    19.807000071     3.117999863     1.754666646   0   0   0 # Mo6+6
     31      7   2  0.000000    17.105999976     4.676999878     1.754666646   0   0   0 # Mo6+6
     32      7   1  0.000000    18.906999975     4.676999878     3.314166387   0   0   0 # S_3+2
     33      7   1  0.000000    18.906999975     4.676999878     0.195166906   0   0   0 # S_3+2
     34      8   2  0.000000    17.105999976     1.557999878     1.754666646   0   0   0 # Mo6+6
     35      8   1  0.000000    18.906999975     1.557999878     3.314166387   0   0   0 # S_3+2
     36      8   1  0.000000    18.906999975     1.557999878     0.195166906   0   0   0 # S_3+2
     37      9   1  0.000000    21.608000000     3.117999863     3.314166387   0   0   0 # S_3+2
     38      9   1  0.000000    21.608000000     3.117999863     0.195166906   0   0   0 # S_3+2
     39      9   2  0.000000    25.209000071     3.117999863     1.754666646   0   0   0 # Mo6+6
     40      9   2  0.000000    22.507999976     4.676999878     1.754666646   0   0   0 # Mo6+6
     41      9   1  0.000000    24.308999975     4.676999878     3.314166387   0   0   0 # S_3+2
     42      9   1  0.000000    24.308999975     4.676999878     0.195166906   0   0   0 # S_3+2
     43     10   2  0.000000    22.507999976     1.557999878     1.754666646   0   0   0 # Mo6+6
     44     10   1  0.000000    24.308999975     1.557999878     3.314166387   0   0   0 # S_3+2
     45     10   1  0.000000    24.308999975     1.557999878     0.195166906   0   0   0 # S_3+2
     46     11   1  0.000000     0.000000000     6.236999863     3.314166387   0   0   0 # S_3+2
     47     11   1  0.000000     0.000000000     6.236999863     0.195166906   0   0   0 # S_3+2
     48     11   2  0.000000     3.601000071     6.236999863     1.754666646   0   0   0 # Mo6+6
     49     11   2  0.000000     0.899999976     7.795999878     1.754666646   0   0   0 # Mo6+6
     50     11   1  0.000000     2.700999975     7.795999878     3.314166387   0   0   0 # S_3+2
     51     11   1  0.000000     2.700999975     7.795999878     0.195166906   0   0   0 # S_3+2
     52     12   1  0.000000     5.402000000     6.236999863     3.314166387   0   0   0 # S_3+2
     53     12   1  0.000000     5.402000000     6.236999863     0.195166906   0   0   0 # S_3+2
     54     12   2  0.000000     9.003000071     6.236999863     1.754666646   0   0   0 # Mo6+6
     55     12   2  0.000000     6.301999976     7.795999878     1.754666646   0   0   0 # Mo6+6
     56     12   1  0.000000     8.102999975     7.795999878     3.314166387   0   0   0 # S_3+2
     57     12   1  0.000000     8.102999975     7.795999878     0.195166906   0   0   0 # S_3+2
     58     13   1  0.000000    10.804000000     6.236999863     3.314166387   0   0   0 # S_3+2
     59     13   1  0.000000    10.804000000     6.236999863     0.195166906   0   0   0 # S_3+2
     60     13   2  0.000000    14.405000071     6.236999863     1.754666646   0   0   0 # Mo6+6
     61     13   2  0.000000    11.703999976     7.795999878     1.754666646   0   0   0 # Mo6+6
     62     13   3  0.000000    13.504999975     7.795999878     3.314166387   0   0   0 # Se3+2
     63     13   3  0.000000    13.504999975     7.795999878     0.195166906   0   0   0 # Se3+2
     64     14   3  0.000000    16.206000000     6.236999863     3.314166387   0   0   0 # Se3+2
     65     14   3  0.000000    16.206000000     6.236999863     0.195166906   0   0   0 # Se3+2
     66     14   2  0.000000    19.807000071     6.236999863     1.754666646   0   0   0 # Mo6+6
     67     14   2  0.000000    17.105999976     7.795999878     1.754666646   0   0   0 # Mo6+6
     68     14   1  0.000000    18.906999975     7.795999878     3.314166387   0   0   0 # S_3+2
     69     14   1  0.000000    18.906999975     7.795999878     0.195166906   0   0   0 # S_3+2
     70     15   1  0.000000    21.608000000     6.236999863     3.314166387   0   0   0 # S_3+2
     71     15   1  0.000000    21.608000000     6.236999863     0.195166906   0   0   0 # S_3+2
     72     15   2  0.000000    25.209000071     6.236999863     1.754666646   0   0   0 # Mo6+6
     73     15   2  0.000000    22.507999976     7.795999878     1.754666646   0   0   0 # Mo6+6
     74     15   1  0.000000    24.308999975     7.795999878     3.314166387   0   0   0 # S_3+2
     75     15   1  0.000000    24.308999975     7.795999878     0.195166906   0   0   0 # S_3+2
     76     16   1  0.000000     0.000000000     9.355999863     3.314166387   0   0   0 # S_3+2
     77     16   1  0.000000     0.000000000     9.355999863     0.195166906   0   0   0 # S_3+2
     78     16   2  0.000000     3.601000071     9.355999863     1.754666646   0   0   0 # Mo6+6
     79     16   2  0.000000     0.899999976    10.914999878     1.754666646   0   0   0 # Mo6+6
     80     16   1  0.000000     2.700999975    10.914999878     3.314166387   0   0   0 # S_3+2
     81     16   1  0.000000     2.700999975    10.914999878     0.195166906   0   0   0 # S_3+2
     82     17   1  0.000000     5.402000000     9.355999863     3.314166387   0   0   0 # S_3+2
     83     17   1  0.000000     5.402000000     9.355999863     0.195166906   0   0   0 # S_3+2
     84     17   2  0.000000     9.003000071     9.355999863     1.754666646   0   0   0 # Mo6+6
     85     17   2  0.000000     6.301999976    10.914999878     1.754666646   0   0   0 # Mo6+6
     86     17   3  0.000000     8.102999975    10.914999878     3.314166387   0   0   0 # Se3+2
     87     17   3  0.000000     8.102999975    10.914999878     0.195166906   0   0   0 # Se3+2
     88     18   3  0.000000    10.804000000     9.355999863     3.314166387   0   0   0 # Se3+2
     89     18   3  0.000000    10.804000000     9.355999863     0.195166906   0   0   0 # Se3+2
     90     18   2  0.000000    14.405000071     9.355999863     1.754666646   0   0   0 # Mo6+6
     91     18   2  0.000000    11.703999976    10.914999878     1.754666646   0   0   0 # Mo6+6
     92     18   3  0.000000    13.504999975    10.914999878     3.314166387   0   0   0 # Se3+2
     93     18   3  0.000000    13.504999975    10.914999878     0.195166906   0   0   0 # Se3+2
     94     19   3  0.000000    16.206000000     9.355999863     3.314166387   0   0   0 # Se3+2
     95     19   3  0.000000    16.206000000     9.355999863     0.195166906   0   0   0 # Se3+2
     96     19   2  0.000000    19.807000071     9.355999863     1.754666646   0   0   0 # Mo6+6
     97     19   2  0.000000    17.105999976    10.914999878     1.754666646   0   0   0 # Mo6+6
     98     19   1  0.000000    18.906999975    10.914999878     3.314166387   0   0   0 # S_3+2
     99     19   1  0.000000    18.906999975    10.914999878     0.195166906   0   0   0 # S_3+2
    100     20   1  0.000000    21.608000000     9.355999863     3.314166387   0   0   0 # S_3+2
    101     20   1  0.000000    21.608000000     9.355999863     0.195166906   0   0   0 # S_3+2
    102     20   2  0.000000    25.209000071     9.355999863     1.754666646   0   0   0 # Mo6+6
    103     20   2  0.000000    22.507999976    10.914999878     1.754666646   0   0   0 # Mo6+6
    104     20   1  0.000000    24.308999975    10.914999878     3.314166387   0   0   0 # S_3+2
    105     20   1  0.000000    24.308999975    10.914999878     0.195166906   0   0   0 # S_3+2
    106     21   1  0.000000     0.000000000    12.474999863     3.314166387   0   0   0 # S_3+2
    107     21   1  0.000000     0.000000000    12.474999863     0.195166906   0   0   0 # S_3+2
    108     21   2  0.000000     3.601000071    12.474999863     1.754666646   0   0   0 # Mo6+6
    109     21   2  0.000000     0.899999976    14.033999878     1.754666646   0   0   0 # Mo6+6
    110     21   1  0.000000     2.700999975    14.033999878     3.314166387   0   0   0 # S_3+2
    111     21   1  0.000000     2.700999975    14.033999878     0.195166906   0   0   0 # S_3+2
    112     22   3  0.000000     5.402000000    12.474999863     3.314166387   0   0   0 # Se3+2
    113     22   3  0.000000     5.402000000    12.474999863     0.195166906   0   0   0 # Se3+2
    114     22   2  0.000000     9.003000071    12.474999863     1.754666646   0   0   0 # Mo6+6
    115     22   2  0.000000     6.301999976    14.033999878     1.754666646   0   0   0 # Mo6+6
    116     22   3  0.000000     8.102999975    14.033999878     3.314166387   0   0   0 # Se3+2
    117     22   3  0.000000     8.102999975    14.033999878     0.195166906   0   0   0 # Se3+2
    118     23   3  0.000000    10.804000000    12.474999863     3.314166387   0   0   0 # Se3+2
    119     23   3  0.000000    10.804000000    12.474999863     0.195166906   0   0   0 # Se3+2
    120     23   2  0.000000    14.405000071    12.474999863     1.754666646   0   0   0 # Mo6+6
    121     23   2  0.000000    11.703999976    14.033999878     1.754666646   0   0   0 # Mo6+6
    122     23   3  0.000000    13.504999975    14.033999878     3.314166387   0   0   0 # Se3+2
    123     23   3  0.000000    13.504999975    14.033999878     0.195166906   0   0   0 # Se3+2
    124     24   3  0.000000    16.206000000    12.474999863     3.314166387   0   0   0 # Se3+2
    125     24   3  0.000000    16.206000000    12.474999863     0.195166906   0   0   0 # Se3+2
    126     24   2  0.000000    19.807000071    12.474999863     1.754666646   0   0   0 # Mo6+6
    127     24   2  0.000000    17.105999976    14.033999878     1.754666646   0   0   0 # Mo6+6
    128     24   1  0.000000    18.906999975    14.033999878     3.314166387   0   0   0 # S_3+2
    129     24   1  0.000000    18.906999975    14.033999878     0.195166906   0   0   0 # S_3+2
    130     25   1  0.000000    21.608000000    12.474999863     3.314166387   0   0   0 # S_3+2
    131     25   1  0.000000    21.608000000    12.474999863     0.195166906   0   0   0 # S_3+2
    132     25   2  0.000000    25.209000071    12.474999863     1.754666646   0   0   0 # Mo6+6
    133     25   2  0.000000    22.507999976    14.033999878     1.754666646   0   0   0 # Mo6+6
    134     25   1  0.000000    24.308999975    14.033999878     3.314166387   0   0   0 # S_3+2
    135     25   1  0.000000    24.308999975    14.033999878     0.195166906   0   0   0 # S_3+2
    136     26   1  0.000000     0.000000000    15.593999863     3.314166387   0   0   0 # S_3+2
    137     26   1  0.000000     0.000000000    15.593999863     0.195166906   0   0   0 # S_3+2
    138     26   2  0.000000     3.601000071    15.593999863     1.754666646   0   0   0 # Mo6+6
    139     26   2  0.000000     0.899999976    17.152999878     1.754666646   0   0   0 # Mo6+6
    140     26   1  0.000000     2.700999975    17.152999878     3.314166387   0   0   0 # S_3+2
    141     26   1  0.000000     2.700999975    17.152999878     0.195166906   0   0   0 # S_3+2
    142     27   1  0.000000     5.402000000    15.593999863     3.314166387   0   0   0 # S_3+2
    143     27   1  0.000000     5.402000000    15.593999863     0.195166906   0   0   0 # S_3+2
    144     27   2  0.000000     9.003000071    15.593999863     1.754666646   0   0   0 # Mo6+6
    145     27   2  0.000000     6.301999976    17.152999878     1.754666646   0   0   0 # Mo6+6
    146     27   1  0.000000     8.102999975    17.152999878     3.314166387   0   0   0 # S_3+2
    147     27   1  0.000000     8.102999975    17.152999878     0.195166906   0   0   0 # S_3+2
    148     28   3  0.000000    10.804000000    15.593999863     3.314166387   0   0   0 # Se3+2
    149     28   3  0.000000    10.804000000    15.593999863     0.195166906   0   0   0 # Se3+2
    150     28   2  0.000000    14.405000071    15.593999863     1.754666646   0   0   0 # Mo6+6
    151     28   2  0.000000    11.703999976    17.152999878     1.754666646   0   0   0 # Mo6+6
    152     28   3  0.000000    13.504999975    17.152999878     3.314166387   0   0   0 # Se3+2
    153     28   3  0.000000    13.504999975    17.152999878     0.195166906   0   0   0 # Se3+2
    154     29   3  0.000000    16.206000000    15.593999863     3.314166387   0   0   0 # Se3+2
    155     29   3  0.000000    16.206000000    15.593999863     0.195166906   0   0   0 # Se3+2
    156     29   2  0.000000    19.807000071    15.593999863     1.754666646   0   0   0 # Mo6+6
    157     29   2  0.000000    17.105999976    17.152999878     1.754666646   0   0   0 # Mo6+6
    158     29   1  0.000000    18.906999975    17.152999878     3.314166387   0   0   0 # S_3+2
    159     29   1  0.000000    18.906999975    17.152999878     0.195166906   0   0   0 # S_3+2
    160     30   1  0.000000    21.608000000    15.593999863     3.314166387   0   0   0 # S_3+2
    161     30   1  0.000000    21.608000000    15.593999863     0.195166906   0   0   0 # S_3+2
    162     30   2  0.000000    25.209000071    15.593999863     1.754666646   0   0   0 # Mo6+6
    163     30   2  0.000000    22.507999976    17.152999878     1.754666646   0   0   0 # Mo6+6
    164     30   1  0.000000    24.308999975    17.152999878     3.314166387   0   0   0 # S_3+2
    165     30   1  0.000000    24.308999975    17.152999878     0.195166906   0   0   0 # S_3+2
    166     31   1  0.000000     0.000000000    18.712999863     3.314166387   0   0   0 # S_3+2
    167     31   1  0.000000     0.000000000    18.712999863     0.195166906   0   0   0 # S_3+2
    168     31   2  0.000000     3.601000071    18.712999863     1.754666646   0   0   0 # Mo6+6
    169     31   2  0.000000     0.899999976    20.271999878     1.754666646   0   0   0 # Mo6+6
    170     31   1  0.000000     2.700999975    20.271999878     3.314166387   0   0   0 # S_3+2
    171     31   1  0.000000     2.700999975    20.271999878     0.195166906   0   0   0 # S_3+2
    172     32   1  0.000000     5.402000000    18.712999863     3.314166387   0   0   0 # S_3+2
    173     32   1  0.000000     5.402000000    18.712999863     0.195166906   0   0   0 # S_3+2
    174     32   2  0.000000     9.003000071    18.712999863     1.754666646   0   0   0 # Mo6+6
    175     32   2  0.000000     6.301999976    20.271999878     1.754666646   0   0   0 # Mo6+6
    176     32   1  0.000000     8.102999975    20.271999878     3.314166387   0   0   0 # S_3+2
    177     32   1  0.000000     8.102999975    20.271999878     0.195166906   0   0   0 # S_3+2
    178     33   1  0.000000    10.804000000    18.712999863     3.314166387   0   0   0 # S_3+2
    179     33   1  0.000000    10.804000000    18.712999863     0.195166906   0   0   0 # S_3+2
    180     33   2  0.000000    14.405000071    18.712999863     1.754666646   0   0   0 # Mo6+6
    181     33   2  0.000000    11.703999976    20.271999878     1.754666646   0   0   0 # Mo6+6
    182     33   1  0.000000    13.504999975    20.271999878     3.314166387   0   0   0 # S_3+2
    183     33   1  0.000000    13.504999975    20.271999878     0.195166906   0   0   0 # S_3+2
    184     34   3  0.000000    16.206000000    18.712999863     3.314166387   0   0   0 # Se3+2
    185     34   3  0.000000    16.206000000    18.712999863     0.195166906   0   0   0 # Se3+2
    186     34   2  0.000000    19.807000071    18.712999863     1.754666646   0   0   0 # Mo6+6
    187     34   2  0.000000    17.105999976    20.271999878     1.754666646   0   0   0 # Mo6+6
    188     34   1  0.000000    18.906999975    20.271999878     3.314166387   0   0   0 # S_3+2
    189     34   1  0.000000    18.906999975    20.271999878     0.195166906   0   0   0 # S_3+2
    190     35   1  0.000000    21.608000000    18.712999863     3.314166387   0   0   0 # S_3+2
    191     35   1  0.000000    21.608000000    18.712999863     0.195166906   0   0   0 # S_3+2
    192     35   2  0.000000    25.209000071    18.712999863     1.754666646   0   0   0 # Mo6+6
    193     35   2  0.000000    22.507999976    20.271999878     1.754666646   0   0   0 # Mo6+6
    194     35   1  0.000000    24.308999975    20.271999878     3.314166387   0   0   0 # S_3+2
    195     35   1  0.000000    24.308999975    20.271999878     0.195166906   0   0   0 # S_3+2
    196     36   1  0.000000     0.000000000    21.831999863     3.314166387   0   0   0 # S_3+2
    197     36   1  0.000000     0.000000000    21.831999863     0.195166906   0   0   0 # S_3+2
    198     36   2  0.000000     3.601000071    21.831999863     1.754666646   0   0   0 # Mo6+6
    199     36   2  0.000000     0.899999976    23.390999878     1.754666646   0   0   0 # Mo6+6
    200     36   1  0.000000     2.700999975    23.390999878     3.314166387   0   0   0 # S_3+2
    201     36   1  0.000000     2.700999975    23.390999878     0.195166906   0   0   0 # S_3+2
    202     37   1  0.000000     5.402000000    21.831999863     3.314166387   0   0   0 # S_3+2
    203     37   1  0.000000     5.402000000    21.831999863     0.195166906   0   0   0 # S_3+2
    204     37   2  0.000000     9.003000071    21.831999863     1.754666646   0   0   0 # Mo6+6
    205     37   2  0.000000     6.301999976    23.390999878     1.754666646   0   0   0 # Mo6+6
    206     37   1  0.000000     8.102999975    23.390999878     3.314166387   0   0   0 # S_3+2
    207     37   1  0.000000     8.102999975    23.390999878     0.195166906   0   0   0 # S_3+2
    208     38   1  0.000000    10.804000000    21.831999863     3.314166387   0   0   0 # S_3+2
    209     38   1  0.000000    10.804000000    21.831999863     0.195166906   0   0   0 # S_3+2
    210     38   2  0.000000    14.405000071    21.831999863     1.754666646   0   0   0 # Mo6+6
    211     38   2  0.000000    11.703999976    23.390999878     1.754666646   0   0   0 # Mo6+6
    212     38   1  0.000000    13.504999975    23.390999878     3.314166387   0   0   0 # S_3+2
    213     38   1  0.000000    13.504999975    23.390999878     0.195166906   0   0   0 # S_3+2
    214     39   1  0.000000    16.206000000    21.831999863     3.314166387   0   0   0 # S_3+2
    215     39   1  0.000000    16.206000000    21.831999863     0.195166906   0   0   0 # S_3+2
    216     39   2  0.000000    19.807000071    21.831999863     1.754666646   0   0   0 # Mo6+6
    217     39   2  0.000000    17.105999976    23.390999878     1.754666646   0   0   0 # Mo6+6
    218     39   1  0.000000    18.906999975    23.390999878     3.314166387   0   0   0 # S_3+2
    219     39   1  0.000000    18.906999975    23.390999878     0.195166906   0   0   0 # S_3+2
    220     40   1  0.000000    21.608000000    21.831999863     3.314166387   0   0   0 # S_3+2
    221     40   1  0.000000    21.608000000    21.831999863     0.195166906   0   0   0 # S_3+2
    222     40   2  0.000000    25.209000071    21.831999863     1.754666646   0   0   0 # Mo6+6
    223     40   2  0.000000    22.507999976    23.390999878     1.754666646   0   0   0 # Mo6+6
    224     40   1  0.000000    24.308999975    23.390999878     3.314166387   0   0   0 # S_3+2
    225     40   1  0.000000    24.308999975    23.390999878     0.195166906   0   0   0 # S_3+2
    226     41   1  0.000000     0.000000000    24.950999863     3.314166387   0   0   0 # S_3+2
    227     41   1  0.000000     0.000000000    24.950999863     0.195166906   0   0   0 # S_3+2
    228     41   2  0.000000     3.601000071    24.950999863     1.754666646   0   0   0 # Mo6+6
    229     41   2  0.000000     0.899999976    26.509999878     1.754666646   0   0   0 # Mo6+6
    230     41   1  0.000000     2.700999975    26.509999878     3.314166387   0   0   0 # S_3+2
    231     41   1  0.000000     2.700999975    26.509999878     0.195166906   0   0   0 # S_3+2
    232     42   1  0.000000     5.402000000    24.950999863     3.314166387   0   0   0 # S_3+2
    233     42   1  0.000000     5.402000000    24.950999863     0.195166906   0   0   0 # S_3+2
    234     42   2  0.000000     9.003000071    24.950999863     1.754666646   0   0   0 # Mo6+6
    235     42   2  0.000000     6.301999976    26.509999878     1.754666646   0   0   0 # Mo6+6
    236     42   1  0.000000     8.102999975    26.509999878     3.314166387   0   0   0 # S_3+2
    237     42   1  0.000000     8.102999975    26.509999878     0.195166906   0   0   0 # S_3+2
    238     43   1  0.000000    10.804000000    24.950999863     3.314166387   0   0   0 # S_3+2
    239     43   1  0.000000    10.804000000    24.950999863     0.195166906   0   0   0 # S_3+2
    240     43   2  0.000000    14.405000071    24.950999863     1.754666646   0   0   0 # Mo6+6
    241     43   2  0.000000    11.703999976    26.509999878     1.754666646   0   0   0 # Mo6+6
    242     43   1  0.000000    13.504999975    26.509999878     3.314166387   0   0   0 # S_3+2
    243     43   1  0.000000    13.504999975    26.509999878     0.195166906   0   0   0 # S_3+2
    244     44   1  0.000000    16.206000000    24.950999863     3.314166387   0   0   0 # S_3+2
    245     44   1  0.000000    16.206000000    24.950999863     0.195166906   0   0   0 # S_3+2
    246     44   2  0.000000    19.807000071    24.950999863     1.754666646   0   0   0 # Mo6+6
    247     44   2  0.000000    17.105999976    26.509999878     1.754666646   0   0   0 # Mo6+6
    248     44   1  0.000000    18.906999975    26.509999878     3.314166387   0   0   0 # S_3+2
    249     44   1  0.000000    18.906999975    26.509999878     0.195166906   0   0   0 # S_3+2
    250     45   1  0.000000    21.608000000    24.950999863     3.314166387   0   0   0 # S_3+2
    251     45   1  0.000000    21.608000000    24.950999863     0.195166906   0   0   0 # S_3+2
    252     45   2  0.000000    25.209000071    24.950999863     1.754666646   0   0   0 # Mo6+6
    253     45   2  0.000000    22.507999976    26.509999878     1.754666646   0   0   0 # Mo6+6
    254     45   1  0.000000    24.308999975    26.509999878     3.314166387   0   0   0 # S_3+2
    255     45   1  0.000000    24.308999975    26.509999878     0.195166906   0   0   0 # S_3+2
    256     46   1  0.000000    27.010000000     3.117999863     3.314166387   0   0   0 # S_3+2
    257     46   1  0.000000    27.010000000     3.117999863     0.195166906   0   0   0 # S_3+2
    258     46   2  0.000000    30.611000071     3.117999863     1.754666646   0   0   0 # Mo6+6
    259     46   2  0.000000    27.909999976     4.676999878     1.754666646   0   0   0 # Mo6+6
    260     46   1  0.000000    29.710999975     4.676999878     3.314166387   0   0   0 # S_3+2
    261     46   1  0.000000    29.710999975     4.676999878     0.195166906   0   0   0 # S_3+2
    262     47   2  0.000000    27.909999976     1.557999878     1.754666646   0   0   0 # Mo6+6
    263     47   1  0.000000    29.710999975     1.557999878     3.314166387   0   0   0 # S_3+2
    264     47   1  0.000000    29.710999975     1.557999878     0.195166906   0   0   0 # S_3+2
    265     48   1  0.000000    32.412000000     3.117999863     3.314166387   0   0   0 # S_3+2
    266     48   1  0.000000    32.412000000     3.117999863     0.195166906   0   0   0 # S_3+2
    267     48   2  0.000000    36.013000071     3.117999863     1.754666646   0   0   0 # Mo6+6
    268     48   2  0.000000    33.311999976     4.676999878     1.754666646   0   0   0 # Mo6+6
    269     48   1  0.000000    35.112999975     4.676999878     3.314166387   0   0   0 # S_3+2
    270     48   1  0.000000    35.112999975     4.676999878     0.195166906   0   0   0 # S_3+2
    271     49   2  0.000000    33.311999976     1.557999878     1.754666646   0   0   0 # Mo6+6
    272     49   1  0.000000    35.112999975     1.557999878     3.314166387   0   0   0 # S_3+2
    273     49   1  0.000000    35.112999975     1.557999878     0.195166906   0   0   0 # S_3+2
    274     50   1  0.000000    37.814000000     3.117999863     3.314166387   0   0   0 # S_3+2
    275     50   1  0.000000    37.814000000     3.117999863     0.195166906   0   0   0 # S_3+2
    276     50   2  0.000000    41.415000071     3.117999863     1.754666646   0   0   0 # Mo6+6
    277     50   2  0.000000    38.713999976     4.676999878     1.754666646   0   0   0 # Mo6+6
    278     50   1  0.000000    40.514999975     4.676999878     3.314166387   0   0   0 # S_3+2
    279     50   1  0.000000    40.514999975     4.676999878     0.195166906   0   0   0 # S_3+2
    280     51   2  0.000000    38.713999976     1.557999878     1.754666646   0   0   0 # Mo6+6
    281     51   1  0.000000    40.514999975     1.557999878     3.314166387   0   0   0 # S_3+2
    282     51   1  0.000000    40.514999975     1.557999878     0.195166906   0   0   0 # S_3+2
    283     52   1  0.000000    43.216000000     3.117999863     3.314166387   0   0   0 # S_3+2
    284     52   1  0.000000    43.216000000     3.117999863     0.195166906   0   0   0 # S_3+2
    285     52   2  0.000000    46.817000071     3.117999863     1.754666646   0   0   0 # Mo6+6
    286     52   2  0.000000    44.115999976     4.676999878     1.754666646   0   0   0 # Mo6+6
    287     52   1  0.000000    45.916999975     4.676999878     3.314166387   0   0   0 # S_3+2
    288     52   1  0.000000    45.916999975     4.676999878     0.195166906   0   0   0 # S_3+2
    289     53   2  0.000000    44.115999976     1.557999878     1.754666646   0   0   0 # Mo6+6
    290     53   1  0.000000    45.916999975     1.557999878     3.314166387   0   0   0 # S_3+2
    291     53   1  0.000000    45.916999975     1.557999878     0.195166906   0   0   0 # S_3+2
    292     54   1  0.000000    48.618000000     3.117999863     3.314166387   0   0   0 # S_3+2
    293     54   1  0.000000    48.618000000     3.117999863     0.195166906   0   0   0 # S_3+2
    294     54   2  0.000000    52.219000071     3.117999863     1.754666646   0   0   0 # Mo6+6
    295     54   2  0.000000    49.517999976     4.676999878     1.754666646   0   0   0 # Mo6+6
    296     54   1  0.000000    51.318999975     4.676999878     3.314166387   0   0   0 # S_3+2
    297     54   1  0.000000    51.318999975     4.676999878     0.195166906   0   0   0 # S_3+2
    298     55   2  0.000000    49.517999976     1.557999878     1.754666646   0   0   0 # Mo6+6
    299     55   1  0.000000    51.318999975     1.557999878     3.314166387   0   0   0 # S_3+2
    300     55   1  0.000000    51.318999975     1.557999878     0.195166906   0   0   0 # S_3+2
    301     56   1  0.000000    27.010000000     6.236999863     3.314166387   0   0   0 # S_3+2
    302     56   1  0.000000    27.010000000     6.236999863     0.195166906   0   0   0 # S_3+2
    303     56   2  0.000000    30.611000071     6.236999863     1.754666646   0   0   0 # Mo6+6
    304     56   2  0.000000    27.909999976     7.795999878     1.754666646   0   0   0 # Mo6+6