LAMMPS data file. msi2lmp v3.9.9 / 05 Nov 2018 / CGCMM for MoS2

    960 atoms
   0 bonds
   0 angles
  0 dihedrals
    0 impropers

   2 atom types
   0 bond types
   0 angle types
   0 dihedral types
   0 improper types

    -0.250734073    53.769265927 xlo xhi
    -0.021266057    49.882733943 ylo yhi
     0.070080929    50.070080929 zlo zhi

Masses

   1  32.064000 # s
   2  95.940000 # Mo

Atoms # full

      1      1   1  0.000000     0.799765927     2.318233935    26.629580670   0   0   0 # s
      2      1   1  0.000000     0.799765927     2.318233935    23.510581189   0   0   0 # s
      3      1   2  0.000000     4.400765998     2.318233935    25.070080929   0   0   0 # Mo
      4      1   2  0.000000     1.699765903     3.877233951    25.070080929   0   0   0 # Mo
      5      1   1  0.000000     3.500765902     3.877233951    26.629580670   0   0   0 # s
      6      1   1  0.000000     3.500765902     3.877233951    23.510581189   0   0   0 # s
      7      2   2  0.000000     1.699765903     0.758233951    25.070080929   0   0   0 # Mo
      8      2   1  0.000000     3.500765902     0.758233951    26.629580670   0   0   0 # s
      9      2   1  0.000000     3.500765902     0.758233951    23.510581189   0   0   0 # s
     10      3   1  0.000000     6.201765927     2.318233935    26.629580670   0   0   0 # s
     11      3   1  0.000000     6.201765927     2.318233935    23.510581189   0   0   0 # s
     12      3   2  0.000000     9.802765998     2.318233935    25.070080929   0   0   0 # Mo
     13      3   2  0.000000     7.101765903     3.877233951    25.070080929   0   0   0 # Mo
     14      3   1  0.000000     8.902765902     3.877233951    26.629580670   0   0   0 # s
     15      3   1  0.000000     8.902765902     3.877233951    23.510581189   0   0   0 # s
     16      4   2  0.000000     7.101765903     0.758233951    25.070080929   0   0   0 # Mo
     17      4   1  0.000000     8.902765902     0.758233951    26.629580670   0   0   0 # s
     18      4   1  0.000000     8.902765902     0.758233951    23.510581189   0   0   0 # s
     19      5   1  0.000000    11.603765927     2.318233935    26.629580670   0   0   0 # s
     20      5   1  0.000000    11.603765927     2.318233935    23.510581189   0   0   0 # s
     21      5   2  0.000000    15.204765998     2.318233935    25.070080929   0   0   0 # Mo
     22      5   2  0.000000    12.503765903     3.877233951    25.070080929   0   0   0 # Mo
     23      5   1  0.000000    14.304765902     3.877233951    26.629580670   0   0   0 # s
     24      5   1  0.000000    14.304765902     3.877233951    23.510581189   0   0   0 # s
     25      6   2  0.000000    12.503765903     0.758233951    25.070080929   0   0   0 # Mo
     26      6   1  0.000000    14.304765902     0.758233951    26.629580670   0   0   0 # s
     27      6   1  0.000000    14.304765902     0.758233951    23.510581189   0   0   0 # s
     28      7   1  0.000000    17.005765927     2.318233935    26.629580670   0   0   0 # s
     29      7   1  0.000000    17.005765927     2.318233935    23.510581189   0   0   0 # s
     30      7   2  0.000000    20.606765998     2.318233935    25.070080929   0   0   0 # Mo
     31      7   2  0.000000    17.905765903     3.877233951    25.070080929   0   0   0 # Mo
     32      7   1  0.000000    19.706765902     3.877233951    26.629580670   0   0   0 # s
     33      7   1  0.000000    19.706765902     3.877233951    23.510581189   0   0   0 # s
     34      8   2  0.000000    17.905765903     0.758233951    25.070080929   0   0   0 # Mo
     35      8   1  0.000000    19.706765902     0.758233951    26.629580670   0   0   0 # s
     36      8   1  0.000000    19.706765902     0.758233951    23.510581189   0   0   0 # s
     37      9   1  0.000000    22.407765927     2.318233935    26.629580670   0   0   0 # s
     38      9   1  0.000000    22.407765927     2.318233935    23.510581189   0   0   0 # s
     39      9   2  0.000000    26.008765998     2.318233935    25.070080929   0   0   0 # Mo
     40      9   2  0.000000    23.307765903     3.877233951    25.070080929   0   0   0 # Mo
     41      9   1  0.000000    25.108765902     3.877233951    26.629580670   0   0   0 # s
     42      9   1  0.000000    25.108765902     3.877233951    23.510581189   0   0   0 # s
     43     10   2  0.000000    23.307765903     0.758233951    25.070080929   0   0   0 # Mo
     44     10   1  0.000000    25.108765902     0.758233951    26.629580670   0   0   0 # s
     45     10   1  0.000000    25.108765902     0.758233951    23.510581189   0   0   0 # s
     46     11   1  0.000000    27.809765927     2.318233935    26.629580670   0   0   0 # s
     47     11   1  0.000000    27.809765927     2.318233935    23.510581189   0   0   0 # s
     48     11   2  0.000000    31.410765998     2.318233935    25.070080929   0   0   0 # Mo
     49     11   2  0.000000    28.709765903     3.877233951    25.070080929   0   0   0 # Mo
     50     11   1  0.000000    30.510765902     3.877233951    26.629580670   0   0   0 # s
     51     11   1  0.000000    30.510765902     3.877233951    23.510581189   0   0   0 # s
     52     12   2  0.000000    28.709765903     0.758233951    25.070080929   0   0   0 # Mo
     53     12   1  0.000000    30.510765902     0.758233951    26.629580670   0   0   0 # s
     54     12   1  0.000000    30.510765902     0.758233951    23.510581189   0   0   0 # s
     55     13   1  0.000000    33.211765927     2.318233935    26.629580670   0   0   0 # s
     56     13   1  0.000000    33.211765927     2.318233935    23.510581189   0   0   0 # s
     57     13   2  0.000000    36.812765998     2.318233935    25.070080929   0   0   0 # Mo
     58     13   2  0.000000    34.111765903     3.877233951    25.070080929   0   0   0 # Mo
     59     13   1  0.000000    35.912765902     3.877233951    26.629580670   0   0   0 # s
     60     13   1  0.000000    35.912765902     3.877233951    23.510581189   0   0   0 # s
     61     14   2  0.000000    34.111765903     0.758233951    25.070080929   0   0   0 # Mo
     62     14   1  0.000000    35.912765902     0.758233951    26.629580670   0   0   0 # s
     63     14   1  0.000000    35.912765902     0.758233951    23.510581189   0   0   0 # s
     64     15   1  0.000000    38.613765927     2.318233935    26.629580670   0   0   0 # s
     65     15   1  0.000000    38.613765927     2.318233935    23.510581189   0   0   0 # s
     66     15   2  0.000000    42.214765998     2.318233935    25.070080929   0   0   0 # Mo
     67     15   2  0.000000    39.513765903     3.877233951    25.070080929   0   0   0 # Mo
     68     15   1  0.000000    41.314765902     3.877233951    26.629580670   0   0   0 # s
     69     15   1  0.000000    41.314765902     3.877233951    23.510581189   0   0   0 # s
     70     16   2  0.000000    39.513765903     0.758233951    25.070080929   0   0   0 # Mo
     71     16   1  0.000000    41.314765902     0.758233951    26.629580670   0   0   0 # s
     72     16   1  0.000000    41.314765902     0.758233951    23.510581189   0   0   0 # s
     73     17   1  0.000000    44.015765927     2.318233935    26.629580670   0   0   0 # s
     74     17   1  0.000000    44.015765927     2.318233935    23.510581189   0   0   0 # s
     75     17   2  0.000000    47.616765998     2.318233935    25.070080929   0   0   0 # Mo
     76     17   2  0.000000    44.915765903     3.877233951    25.070080929   0   0   0 # Mo
     77     17   1  0.000000    46.716765902     3.877233951    26.629580670   0   0   0 # s
     78     17   1  0.000000    46.716765902     3.877233951    23.510581189   0   0   0 # s
     79     18   2  0.000000    44.915765903     0.758233951    25.070080929   0   0   0 # Mo
     80     18   1  0.000000    46.716765902     0.758233951    26.629580670   0   0   0 # s
     81     18   1  0.000000    46.716765902     0.758233951    23.510581189   0   0   0 # s
     82     19   1  0.000000    49.417765927     2.318233935    26.629580670   0   0   0 # s
     83     19   1  0.000000    49.417765927     2.318233935    23.510581189   0   0   0 # s
     84     19   2  0.000000    53.018765998     2.318233935    25.070080929   0   0   0 # Mo
     85     19   2  0.000000    50.317765903     3.877233951    25.070080929   0   0   0 # Mo
     86     19   1  0.000000    52.118765902     3.877233951    26.629580670   0   0   0 # s
     87     19   1  0.000000    52.118765902     3.877233951    23.510581189   0   0   0 # s
     88     20   2  0.000000    50.317765903     0.758233951    25.070080929   0   0   0 # Mo
     89     20   1  0.000000    52.118765902     0.758233951    26.629580670   0   0   0 # s
     90     20   1  0.000000    52.118765902     0.758233951    23.510581189   0   0   0 # s
     91     21   1  0.000000     0.799765927     5.437233935    26.629580670   0   0   0 # s
     92     21   1  0.000000     0.799765927     5.437233935    23.510581189   0   0   0 # s
     93     21   2  0.000000     4.400765998     5.437233935    25.070080929   0   0   0 # Mo
     94     21   2  0.000000     1.699765903     6.996233951    25.070080929   0   0   0 # Mo
     95     21   1  0.000000     3.500765902     6.996233951    26.629580670   0   0   0 # s
     96     21   1  0.000000     3.500765902     6.996233951    23.510581189   0   0   0 # s
     97     22   1  0.000000     6.201765927     5.437233935    26.629580670   0   0   0 # s
     98     22   1  0.000000     6.201765927     5.437233935    23.510581189   0   0   0 # s
     99     22   2  0.000000     9.802765998     5.437233935    25.070080929   0   0   0 # Mo
    100     22   2  0.000000     7.101765903     6.996233951    25.070080929   0   0   0 # Mo
    101     22   1  0.000000     8.902765902     6.996233951    26.629580670   0   0   0 # s
    102     22   1  0.000000     8.902765902     6.996233951    23.510581189   0   0   0 # s
    103     23   1  0.000000    11.603765927     5.437233935    26.629580670   0   0   0 # s
    104     23   1  0.000000    11.603765927     5.437233935    23.510581189   0   0   0 # s
    105     23   2  0.000000    15.204765998     5.437233935    25.070080929   0   0   0 # Mo
    106     23   2  0.000000    12.503765903     6.996233951    25.070080929   0   0   0 # Mo
    107     23   1  0.000000    14.304765902     6.996233951    26.629580670   0   0   0 # s
    108     23   1  0.000000    14.304765902     6.996233951    23.510581189   0   0   0 # s
    109     24   1  0.000000    17.005765927     5.437233935    26.629580670   0   0   0 # s
    110     24   1  0.000000    17.005765927     5.437233935    23.510581189   0   0   0 # s
    111     24   2  0.000000    20.606765998     5.437233935    25.070080929   0   0   0 # Mo
    112     24   2  0.000000    17.905765903     6.996233951    25.070080929   0   0   0 # Mo
    113     24   1  0.000000    19.706765902     6.996233951    26.629580670   0   0   0 # s
    114     24   1  0.000000    19.706765902     6.996233951    23.510581189   0   0   0 # s
    115     25   1  0.000000    22.407765927     5.437233935    26.629580670   0   0   0 # s
    116     25   1  0.000000    22.407765927     5.437233935    23.510581189   0   0   0 # s
    117     25   2  0.000000    26.008765998     5.437233935    25.070080929   0   0   0 # Mo
    118     25   2  0.000000    23.307765903     6.996233951    25.070080929   0   0   0 # Mo
    119     25   1  0.000000    25.108765902     6.996233951    26.629580670   0   0   0 # s
    120     25   1  0.000000    25.108765902     6.996233951    23.510581189   0   0   0 # s
    121     26   1  0.000000    27.809765927     5.437233935    26.629580670   0   0   0 # s
    122     26   1  0.000000    27.809765927     5.437233935    23.510581189   0   0   0 # s
    123     26   2  0.000000    31.410765998     5.437233935    25.070080929   0   0   0 # Mo
    124     26   2  0.000000    28.709765903     6.996233951    25.070080929   0   0   0 # Mo
    125     26   1  0.000000    30.510765902     6.996233951    26.629580670   0   0   0 # s
    126     26   1  0.000000    30.510765902     6.996233951    23.510581189   0   0   0 # s
    127     27   1  0.000000    33.211765927     5.437233935    26.629580670   0   0   0 # s
    128     27   1  0.000000    33.211765927     5.437233935    23.510581189   0   0   0 # s
    129     27   2  0.000000    36.812765998     5.437233935    25.070080929   0   0   0 # Mo
    130     27   2  0.000000    34.111765903     6.996233951    25.070080929   0   0   0 # Mo
    131     27   1  0.000000    35.912765902     6.996233951    26.629580670   0   0   0 # s
    132     27   1  0.000000    35.912765902     6.996233951    23.510581189   0   0   0 # s
    133     28   1  0.000000    38.613765927     5.437233935    26.629580670   0   0   0 # s
    134     28   1  0.000000    38.613765927     5.437233935    23.510581189   0   0   0 # s
    135     28   2  0.000000    42.214765998     5.437233935    25.070080929   0   0   0 # Mo
    136     28   2  0.000000    39.513765903     6.996233951    25.070080929   0   0   0 # Mo
    137     28   1  0.000000    41.314765902     6.996233951    26.629580670   0   0   0 # s
    138     28   1  0.000000    41.314765902     6.996233951    23.510581189   0   0   0 # s
    139     29   1  0.000000    44.015765927     5.437233935    26.629580670   0   0   0 # s
    140     29   1  0.000000    44.015765927     5.437233935    23.510581189   0   0   0 # s
    141     29   2  0.000000    47.616765998     5.437233935    25.070080929   0   0   0 # Mo
    142     29   2  0.000000    44.915765903     6.996233951    25.070080929   0   0   0 # Mo
    143     29   1  0.000000    46.716765902     6.996233951    26.629580670   0   0   0 # s
    144     29   1  0.000000    46.716765902     6.996233951    23.510581189   0   0   0 # s
    145     30   1  0.000000    49.417765927     5.437233935    26.629580670   0   0   0 # s
    146     30   1  0.000000    49.417765927     5.437233935    23.510581189   0   0   0 # s
    147     30   2  0.000000    53.018765998     5.437233935    25.070080929   0   0   0 # Mo
    148     30   2  0.000000    50.317765903     6.996233951    25.070080929   0   0   0 # Mo
    149     30   1  0.000000    52.118765902     6.996233951    26.629580670   0   0   0 # s
    150     30   1  0.000000    52.118765902     6.996233951    23.510581189   0   0   0 # s
    151     31   1  0.000000     0.799765927     8.556233935    26.629580670   0   0   0 # s
    152     31   1  0.000000     0.799765927     8.556233935    23.510581189   0   0   0 # s
    153     31   2  0.000000     4.400765998     8.556233935    25.070080929   0   0   0 # Mo
    154     31   2  0.000000     1.699765903    10.115233951    25.070080929   0   0   0 # Mo
    155     31   1  0.000000     3.500765902    10.115233951    26.629580670   0   0   0 # s
    156     31   1  0.000000     3.500765902    10.115233951    23.510581189   0   0   0 # s
    157     32   1  0.000000     6.201765927     8.556233935    26.629580670   0   0   0 # s
    158     32   1  0.000000     6.201765927     8.556233935    23.510581189   0   0   0 # s
    159     32   2  0.000000     9.802765998     8.556233935    25.070080929   0   0   0 # Mo
    160     32   2  0.000000     7.101765903    10.115233951    25.070080929   0   0   0 # Mo
    161     32   1  0.000000     8.902765902    10.115233951    26.629580670   0   0   0 # s
    162     32   1  0.000000     8.902765902    10.115233951    23.510581189   0   0   0 # s
    163     33   1  0.000000    11.603765927     8.556233935    26.629580670   0   0   0 # s
    164     33   1  0.000000    11.603765927     8.556233935    23.510581189   0   0   0 # s
    165     33   2  0.000000    15.204765998     8.556233935    25.070080929   0   0   0 # Mo
    166     33   2  0.000000    12.503765903    10.115233951    25.070080929   0   0   0 # Mo
    167     33   1  0.000000    14.304765902    10.115233951    26.629580670   0   0   0 # s
    168     33   1  0.000000    14.304765902    10.115233951    23.510581189   0   0   0 # s
    169     34   1  0.000000    17.005765927     8.556233935    26.629580670   0   0   0 # s
    170     34   1  0.000000    17.005765927     8.556233935    23.510581189   0   0   0 # s
    171     34   2  0.000000    20.606765998     8.556233935    25.070080929   0   0   0 # Mo
    172     34   2  0.000000    17.905765903    10.115233951    25.070080929   0   0   0 # Mo
    173     34   1  0.000000    19.706765902    10.115233951    26.629580670   0   0   0 # s
    174     34   1  0.000000    19.706765902    10.115233951    23.510581189   0   0   0 # s
    175     35   1  0.000000    22.407765927     8.556233935    26.629580670   0   0   0 # s
    176     35   1  0.000000    22.407765927     8.556233935    23.510581189   0   0   0 # s
    177     35   2  0.000000    26.008765998     8.556233935    25.070080929   0   0   0 # Mo
    178     35   2  0.000000    23.307765903    10.115233951    25.070080929   0   0   0 # Mo
    179     35   1  0.000000    25.108765902    10.115233951    26.629580670   0   0   0 # s
    180     35   1  0.000000    25.108765902    10.115233951    23.510581189   0   0   0 # s
    181     36   1  0.000000    27.809765927     8.556233935    26.629580670   0   0   0 # s
    182     36   1  0.000000    27.809765927     8.556233935    23.510581189   0   0   0 # s
    183     36   2  0.000000    31.410765998     8.556233935    25.070080929   0   0   0 # Mo
    184     36   2  0.000000    28.709765903    10.115233951    25.070080929   0   0   0 # Mo
    185     36   1  0.000000    30.510765902    10.115233951    26.629580670   0   0   0 # s
    186     36   1  0.000000    30.510765902    10.115233951    23.510581189   0   0   0 # s
    187     37   1  0.000000    33.211765927     8.556233935    26.629580670   0   0   0 # s
    188     37   1  0.000000    33.211765927     8.556233935    23.510581189   0   0   0 # s
    189     37   2  0.000000    36.812765998     8.556233935    25.070080929   0   0   0 # Mo
    190     37   2  0.000000    34.111765903    10.115233951    25.070080929   0   0   0 # Mo
    191     37   1  0.000000    35.912765902    10.115233951    26.629580670   0   0   0 # s
    192     37   1  0.000000    35.912765902    10.115233951    23.510581189   0   0   0 # s
    193     38   1  0.000000    38.613765927     8.556233935    26.629580670   0   0   0 # s
    194     38   1  0.000000    38.613765927     8.556233935    23.510581189   0   0   0 # s
    195     38   2  0.000000    42.214765998     8.556233935    25.070080929   0   0   0 # Mo
    196     38   2  0.000000    39.513765903    10.115233951    25.070080929   0   0   0 # Mo
    197     38   1  0.000000    41.314765902    10.115233951    26.629580670   0   0   0 # s
    198     38   1  0.000000    41.314765902    10.115233951    23.510581189   0   0   0 # s
    199     39   1  0.000000    44.015765927     8.556233935    26.629580670   0   0   0 # s
    200     39   1  0.000000    44.015765927     8.556233935    23.510581189   0   0   0 # s
    201     39   2  0.000000    47.616765998     8.556233935    25.070080929   0   0   0 # Mo
    202     39   2  0.000000    44.915765903    10.115233951    25.070080929   0   0   0 # Mo
    203     39   1  0.000000    46.716765902    10.115233951    26.629580670   0   0   0 # s
    204     39   1  0.000000    46.716765902    10.115233951    23.510581189   0   0   0 # s
    205     40   1  0.000000    49.417765927     8.556233935    26.629580670   0   0   0 # s
    206     40   1  0.000000    49.417765927     8.556233935    23.510581189   0   0   0 # s
    207     40   2  0.000000    53.018765998     8.556233935    25.070080929   0   0   0 # Mo
    208     40   2  0.000000    50.317765903    10.115233951    25.070080929   0   0   0 # Mo
    209     40   1  0.000000    52.118765902    10.115233951    26.629580670   0   0   0 # s
    210     40   1  0.000000    52.118765902    10.115233951    23.510581189   0   0   0 # s
    211     41   1  0.000000     0.799765927    11.675233935    26.629580670   0   0   0 # s
    212     41   1  0.000000     0.799765927    11.675233935    23.510581189   0   0   0 # s
    213     41   2  0.000000     4.400765998    11.675233935    25.070080929   0   0   0 # Mo
    214     41   2  0.000000     1.699765903    13.234233951    25.070080929   0   0   0 # Mo
    215     41   1  0.000000     3.500765902    13.234233951    26.629580670   0   0   0 # s
    216     41   1  0.000000     3.500765902    13.234233951    23.510581189   0   0   0 # s
    217     42   1  0.000000     6.201765927    11.675233935    26.629580670   0   0   0 # s
    218     42   1  0.000000     6.201765927    11.675233935    23.510581189   0   0   0 # s
    219     42   2  0.000000     9.802765998    11.675233935    25.070080929   0   0   0 # Mo
    220     42   2  0.000000     7.101765903    13.234233951    25.070080929   0   0   0 # Mo
    221     42   1  0.000000     8.902765902    13.234233951    26.629580670   0   0   0 # s
    222     42   1  0.000000     8.902765902    13.234233951    23.510581189   0   0   0 # s
    223     43   1  0.000000    11.603765927    11.675233935    26.629580670   0   0   0 # s
    224     43   1  0.000000    11.603765927    11.675233935    23.510581189   0   0   0 # s
    225     43   2  0.000000    15.204765998    11.675233935    25.070080929   0   0   0 # Mo
    226     43   2  0.000000    12.503765903    13.234233951    25.070080929   0   0   0 # Mo
    227     43   1  0.000000    14.304765902    13.234233951    26.629580670   0   0   0 # s
    228     43   1  0.000000    14.304765902    13.234233951    23.510581189   0   0   0 # s
    229     44   1  0.000000    17.005765927    11.675233935    26.629580670   0   0   0 # s
    230     44   1  0.000000    17.005765927    11.675233935    23.510581189   0   0   0 # s
    231     44   2  0.000000    20.606765998    11.675233935    25.070080929   0   0   0 # Mo
    232     44   2  0.000000    17.905765903    13.234233951    25.070080929   0   0   0 # Mo
    233     44   1  0.000000    19.706765902    13.234233951    26.629580670   0   0   0 # s
    234     44   1  0.000000    19.706765902    13.234233951    23.510581189   0   0   0 # s
    235     45   1  0.000000    22.407765927    11.675233935    26.629580670   0   0   0 # s
    236     45   1  0.000000    22.407765927    11.675233935    23.510581189   0   0   0 # s
    237     45   2  0.000000    26.008765998    11.675233935    25.070080929   0   0   0 # Mo
    238     45   2  0.000000    23.307765903    13.234233951    25.070080929   0   0   0 # Mo
    239     45   1  0.000000    25.108765902    13.234233951    26.629580670   0   0   0 # s
    240     45   1  0.000000    25.108765902    13.234233951    23.510581189   0   0   0 # s
    241     46   1  0.000000    27.809765927    11.675233935    26.629580670   0   0   0 # s
    242     46   1  0.000000    27.809765927    11.675233935    23.510581189   0   0   0 # s
    243     46   2  0.000000    31.410765998    11.675233935    25.070080929   0   0   0 # Mo
    244     46   2  0.000000    28.709765903    13.234233951    25.070080929   0   0   0 # Mo
    245     46   1  0.000000    30.510765902    13.234233951    26.629580670   0   0   0 # s
    246     46   1  0.000000    30.510765902    13.234233951    23.510581189   0   0   0 # s
    247     47   1  0.000000    33.211765927    11.675233935    26.629580670   0   0   0 # s
    248     47   1  0.000000    33.211765927    11.675233935    23.510581189   0   0   0 # s
    249     47   2  0.000000    36.812765998    11.675233935    25.070080929   0   0   0 # Mo
    250     47   2  0.000000    34.111765903    13.234233951    25.070080929   0   0   0 # Mo
    251     47   1  0.000000    35.912765902    13.234233951    26.629580670   0   0   0 # s
    252     47   1  0.000000    35.912765902    13.234233951    23.510581189   0   0   0 # s
    253     48   1  0.000000    38.613765927    11.675233935    26.629580670   0   0   0 # s
    254     48   1  0.000000    38.613765927    11.675233935    23.510581189   0   0   0 # s
    255     48   2  0.000000    42.214765998    11.675233935    25.070080929   0   0   0 # Mo
    256     48   2  0.000000    39.513765903    13.234233951    25.070080929   0   0   0 # Mo
    257     48   1  0.000000    41.314765902    13.234233951    26.629580670   0   0   0 # s
    258     48   1  0.000000    41.314765902    13.234233951    23.510581189   0   0   0 # s
    259     49   1  0.000000    44.015765927    11.675233935    26.629580670   0   0   0 # s
    260     49   1  0.000000    44.015765927    11.675233935    23.510581189   0   0   0 # s
    261     49   2  0.000000    47.616765998    11.675233935    25.070080929   0   0   0 # Mo
    262     49   2  0.000000    44.915765903    13.234233951    25.070080929   0   0   0 # Mo
    263     49   1  0.000000    46.716765902    13.234233951    26.629580670   0   0   0 # s
    264     49   1  0.000000    46.716765902    13.234233951    23.510581189   0   0   0 # s
    265     50   1  0.000000    49.417765927    11.675233935    26.629580670   0   0   0 # s
    266     50   1  0.000000    49.417765927    11.675233935    23.510581189   0   0   0 # s
    267     50   2  0.000000    53.018765998    11.675233935    25.070080929   0   0   0 # Mo
    268     50   2  0.000000    50.317765903    13.234233951    25.070080929   0   0   0 # Mo
    269     50   1  0.000000    52.118765902    13.234233951    26.629580670   0   0   0 # s
    270     50   1  0.000000    52.118765902    13.234233951    23.510581189   0   0   0 # s
    271     51   1  0.000000     0.799765927    14.794233935    26.629580670   0   0   0 # s
    272     51   1  0.000000     0.799765927    14.794233935    23.510581189   0   0   0 # s
    273     51   2  0.000000     4.400765998    14.794233935    25.070080929   0   0   0 # Mo
    274     51   2  0.000000     1.699765903    16.353233951    25.070080929   0   0   0 # Mo
    275     51   1  0.000000     3.500765902    16.353233951    26.629580670   0   0   0 # s
    276     51   1  0.000000     3.500765902    16.353233951    23.510581189   0   0   0 # s
    277     52   1  0.000000     6.201765927    14.794233935    26.629580670   0   0   0 # s
    278     52   1  0.000000     6.201765927    14.794233935    23.510581189   0   0   0 # s
    279     52   2  0.000000     9.802765998    14.794233935    25.070080929   0   0   0 # Mo
    280     52   2  0.000000     7.101765903    16.353233951    25.070080929   0   0   0 # Mo
    281     52   1  0.000000     8.902765902    16.353233951    26.629580670   0   0   0 # s
    282     52   1  0.000000     8.902765902    16.353233951    23.510581189   0   0   0 # s
    283     53   1  0.000000    11.603765927    14.794233935    26.629580670   0   0   0 # s
    284     53   1  0.000000    11.603765927    14.794233935    23.510581189   0   0   0 # s
    285     53   2  0.000000    15.204765998    14.794233935    25.070080929   0   0   0 # Mo
    286     53   2  0.000000    12.503765903    16.353233951    25.070080929   0   0   0 # Mo
    287     53   1  0.000000    14.304765902    16.353233951    26.629580670   0   0   0 # s
    288     53   1  0.000000    14.304765902    16.353233951    23.510581189   0   0   0 # s
    289     54   1  0.000000    17.005765927    14.794233935    26.629580670   0   0   0 # s
    290     54   1  0.000000    17.005765927    14.794233935    23.510581189   0   0   0 # s
    291     54   2  0.000000    20.606765998    14.794233935    25.070080929   0   0   0 # Mo
    292     54   2  0.000000    17.905765903    16.353233951    25.070080929   0   0   0 # Mo
    293     54   1  0.000000    19.706765902    16.353233951    26.629580670   0   0   0 # s
    294     54   1  0.000000    19.706765902    16.353233951    23.510581189   0   0   0 # s
    295     55   1  0.000000    22.407765927    14.794233935    26.629580670   0   0   0 # s
    296     55   1  0.000000    22.407765927    14.794233935    23.510581189   0   0   0 # s
    297     55   2  0.000000    26.008765998    14.794233935    25.070080929   0   0   0 # Mo
    298     55   2  0.000000    23.307765903    16.353233951    25.070080929   0   0   0 # Mo
    299     55   1  0.000000    25.108765902    16.353233951    26.629580670   0   0   0 # s
    300     55   1  0.000000    25.108765902    16.353233951    23.510581189   0   0   0 # s
    301     56   1  0.000000    27.809765927    14.794233935    26.629580670   0   0   0 # s
    302     56   1  0.000000    27.809765927    14.794233935    23.510581189   0   0   0 # s
    303     56   2  0.000000    31.410765998    14.794233935    25.070080929   0   0   0 # Mo
    304     56   2  0.000000    28.709765903    16.353233951    25.070080929   0   0   0 # Mo
    305     56   1  0.000000    30.510765902    16.353233951    26.629580670   0   0   0 # s
    306     56   1  0.000000    30.510765902    16.353233951    23.510581189   0   0   0 # s
    307     57   1  0.000000    33.211765927    14.794233935    26.629580670   0   0   0 # s
    308     57   1  0.000000    33.211765927    14.794233935    23.510581189   0   0   0 # s
    309     57   2  0.000000    36.812765998    14.794233935    25.070080929   0   0   0 # Mo
    310     57   2  0.000000    34.111765903    16.353233951    25.070080929   0   0   0 # Mo
    311     57   1  0.000000    35.912765902    16.353233951    26.629580670   0   0   0 # s
    312     57   1  0.000000    35.912765902    16.353233951    23.510581189   0   0   0 # s
    313     58   1  0.000000    38.613765927    14.794233935    26.629580670   0   0   0 # s
    314     58   1  0.000000    38.613765927    14.794233935    23.510581189   0   0   0 # s
    315     58   2  0.000000    42.214765998    14.794233935    25.070080929   0   0   0 # Mo
    316     58   2  0.000000    39.513765903    16.353233951    25.070080929   0   0   0 # Mo
    317     58   1  0.000000    41.314765902    16.353233951    26.629580670   0   0   0 # s