LAMMPS data file. msi2lmp v3.9.9 / 05 Nov 2018 / CGCMM for 25_4x8

   7968 atoms
  0 bonds
  0 angles
 0 dihedrals
   0 impropers

   2 atom types
   0 bond types
   0 angle types
   0 dihedral types
   0 improper types

    -0.295927347   583.120072653 xlo xhi
    -0.256124240    49.647875760 ylo yhi
   -23.245333354    26.754666646 zlo zhi

Masses

   1  32.064000 # s
   2  95.940000 # Mo

Atoms # full

      1      1   1  0.000000    22.407765927     2.318233935     3.314166387   0   0   0 # s
      1      1   1  0.000000    22.407765927     2.318233935     3.314166387   0   0   0 # s
      2      1   1  0.000000    22.407765927     2.318233935     0.195166906   0   0   0 # s
      3      1   2  0.000000    26.008765998     2.318233935     1.754666646   0   0   0 # Mo
      4      1   2  0.000000    23.307765903     3.877233951     1.754666646   0   0   0 # Mo
      5      1   1  0.000000    25.108765902     3.877233951     3.314166387   0   0   0 # s
      6      1   1  0.000000    25.108765902     3.877233951     0.195166906   0   0   0 # s
      7      2   2  0.000000    23.307765903     0.758233951     1.754666646   0   0   0 # Mo
      8      2   1  0.000000    25.108765902     0.758233951     3.314166387   0   0   0 # s
      9      2   1  0.000000    25.108765902     0.758233951     0.195166906   0   0   0 # s
     10      3   1  0.000000    27.809765927     2.318233935     3.314166387   0   0   0 # s
     11      3   1  0.000000    27.809765927     2.318233935     0.195166906   0   0   0 # s
     12      3   2  0.000000    31.410765998     2.318233935     1.754666646   0   0   0 # Mo
     13      3   2  0.000000    28.709765903     3.877233951     1.754666646   0   0   0 # Mo
     14      3   1  0.000000    30.510765902     3.877233951     3.314166387   0   0   0 # s
     15      3   1  0.000000    30.510765902     3.877233951     0.195166906   0   0   0 # s
     16      4   2  0.000000    28.709765903     0.758233951     1.754666646   0   0   0 # Mo
     17      4   1  0.000000    30.510765902     0.758233951     3.314166387   0   0   0 # s
     18      4   1  0.000000    30.510765902     0.758233951     0.195166906   0   0   0 # s
     19      5   1  0.000000    33.211765927     2.318233935     3.314166387   0   0   0 # s
     20      5   1  0.000000    33.211765927     2.318233935     0.195166906   0   0   0 # s
     21      5   2  0.000000    36.812765998     2.318233935     1.754666646   0   0   0 # Mo
     22      5   2  0.000000    34.111765903     3.877233951     1.754666646   0   0   0 # Mo
     23      5   1  0.000000    35.912765902     3.877233951     3.314166387   0   0   0 # s
     24      5   1  0.000000    35.912765902     3.877233951     0.195166906   0   0   0 # s
     25      6   2  0.000000    34.111765903     0.758233951     1.754666646   0   0   0 # Mo
     26      6   1  0.000000    35.912765902     0.758233951     3.314166387   0   0   0 # s
     27      6   1  0.000000    35.912765902     0.758233951     0.195166906   0   0   0 # s
     28      7   1  0.000000    38.613765927     2.318233935     3.314166387   0   0   0 # s
     29      7   1  0.000000    38.613765927     2.318233935     0.195166906   0   0   0 # s
     30      7   2  0.000000    42.214765998     2.318233935     1.754666646   0   0   0 # Mo
     31      7   2  0.000000    39.513765903     3.877233951     1.754666646   0   0   0 # Mo
     32      7   1  0.000000    41.314765902     3.877233951     3.314166387   0   0   0 # s
     33      7   1  0.000000    41.314765902     3.877233951     0.195166906   0   0   0 # s
     34      8   2  0.000000    39.513765903     0.758233951     1.754666646   0   0   0 # Mo
     35      8   1  0.000000    41.314765902     0.758233951     3.314166387   0   0   0 # s
     36      8   1  0.000000    41.314765902     0.758233951     0.195166906   0   0   0 # s
     37      9   1  0.000000    22.407765927     5.437233935     3.314166387   0   0   0 # s
     38      9   1  0.000000    22.407765927     5.437233935     0.195166906   0   0   0 # s
     39      9   2  0.000000    26.008765998     5.437233935     1.754666646   0   0   0 # Mo
     40      9   2  0.000000    23.307765903     6.996233951     1.754666646   0   0   0 # Mo
     41      9   1  0.000000    25.108765902     6.996233951     3.314166387   0   0   0 # s
     42      9   1  0.000000    25.108765902     6.996233951     0.195166906   0   0   0 # s
     43     10   1  0.000000    27.809765927     5.437233935     3.314166387   0   0   0 # s
     44     10   1  0.000000    27.809765927     5.437233935     0.195166906   0   0   0 # s
     45     10   2  0.000000    31.410765998     5.437233935     1.754666646   0   0   0 # Mo
     46     10   2  0.000000    28.709765903     6.996233951     1.754666646   0   0   0 # Mo
     47     10   1  0.000000    30.510765902     6.996233951     3.314166387   0   0   0 # s
     48     10   1  0.000000    30.510765902     6.996233951     0.195166906   0   0   0 # s
     49     11   1  0.000000    33.211765927     5.437233935     3.314166387   0   0   0 # s
     50     11   1  0.000000    33.211765927     5.437233935     0.195166906   0   0   0 # s
     51     11   2  0.000000    36.812765998     5.437233935     1.754666646   0   0   0 # Mo
     52     12   1  0.000000    38.613765927     5.437233935     3.314166387   0   0   0 # s
     53     12   1  0.000000    38.613765927     5.437233935     0.195166906   0   0   0 # s
     54     12   2  0.000000    42.214765998     5.437233935     1.754666646   0   0   0 # Mo
     55     12   2  0.000000    39.513765903     6.996233951     1.754666646   0   0   0 # Mo
     56     12   1  0.000000    41.314765902     6.996233951     3.314166387   0   0   0 # s
     57     12   1  0.000000    41.314765902     6.996233951     0.195166906   0   0   0 # s
     58     13   1  0.000000    22.407765927     8.556233935     3.314166387   0   0   0 # s
     59     13   1  0.000000    22.407765927     8.556233935     0.195166906   0   0   0 # s
     60     13   2  0.000000    26.008765998     8.556233935     1.754666646   0   0   0 # Mo
     61     13   2  0.000000    23.307765903    10.115233951     1.754666646   0   0   0 # Mo
     62     13   1  0.000000    25.108765902    10.115233951     3.314166387   0   0   0 # s
     63     13   1  0.000000    25.108765902    10.115233951     0.195166906   0   0   0 # s
     64     14   1  0.000000    27.809765927     8.556233935     3.314166387   0   0   0 # s
     65     14   1  0.000000    27.809765927     8.556233935     0.195166906   0   0   0 # s
     66     15   1  0.000000    38.613765927     8.556233935     3.314166387   0   0   0 # s
     67     15   1  0.000000    38.613765927     8.556233935     0.195166906   0   0   0 # s
     68     15   2  0.000000    42.214765998     8.556233935     1.754666646   0   0   0 # Mo
     69     15   2  0.000000    39.513765903    10.115233951     1.754666646   0   0   0 # Mo
     70     15   1  0.000000    41.314765902    10.115233951     3.314166387   0   0   0 # s
     71     15   1  0.000000    41.314765902    10.115233951     0.195166906   0   0   0 # s
     72     16   1  0.000000    22.407765927    11.675233935     3.314166387   0   0   0 # s
     73     16   1  0.000000    22.407765927    11.675233935     0.195166906   0   0   0 # s
     74     16   2  0.000000    23.307765903    13.234233951     1.754666646   0   0   0 # Mo
     75     17   1  0.000000    38.613765927    11.675233935     3.314166387   0   0   0 # s
     76     17   1  0.000000    38.613765927    11.675233935     0.195166906   0   0   0 # s
     77     17   2  0.000000    42.214765998    11.675233935     1.754666646   0   0   0 # Mo
     78     17   2  0.000000    39.513765903    13.234233951     1.754666646   0   0   0 # Mo
     79     17   1  0.000000    41.314765902    13.234233951     3.314166387   0   0   0 # s
     80     17   1  0.000000    41.314765902    13.234233951     0.195166906   0   0   0 # s
     81     18   1  0.000000    22.407765927    14.794233935     3.314166387   0   0   0 # s
     82     18   1  0.000000    22.407765927    14.794233935     0.195166906   0   0   0 # s
     83     18   2  0.000000    23.307765903    16.353233951     1.754666646   0   0   0 # Mo
     84     18   1  0.000000    25.108765902    16.353233951     3.314166387   0   0   0 # s
     85     18   1  0.000000    25.108765902    16.353233951     0.195166906   0   0   0 # s
     86     19   1  0.000000    38.613765927    14.794233935     3.314166387   0   0   0 # s
     87     19   1  0.000000    38.613765927    14.794233935     0.195166906   0   0   0 # s
     88     19   2  0.000000    42.214765998    14.794233935     1.754666646   0   0   0 # Mo
     89     19   2  0.000000    39.513765903    16.353233951     1.754666646   0   0   0 # Mo
     90     19   1  0.000000    41.314765902    16.353233951     3.314166387   0   0   0 # s
     91     19   1  0.000000    41.314765902    16.353233951     0.195166906   0   0   0 # s
     92     20   1  0.000000    22.407765927    17.913233935     3.314166387   0   0   0 # s
     93     20   1  0.000000    22.407765927    17.913233935     0.195166906   0   0   0 # s
     94     20   2  0.000000    26.008765998    17.913233935     1.754666646   0   0   0 # Mo
     95     20   2  0.000000    23.307765903    19.472233951     1.754666646   0   0   0 # Mo
     96     20   1  0.000000    25.108765902    19.472233951     3.314166387   0   0   0 # s
     97     20   1  0.000000    25.108765902    19.472233951     0.195166906   0   0   0 # s
     98     21   1  0.000000    27.809765927    17.913233935     3.314166387   0   0   0 # s
     99     21   1  0.000000    27.809765927    17.913233935     0.195166906   0   0   0 # s
    100     21   2  0.000000    28.709765903    19.472233951     1.754666646   0   0   0 # Mo
    101     21   1  0.000000    30.510765902    19.472233951     3.314166387   0   0   0 # s
    102     21   1  0.000000    30.510765902    19.472233951     0.195166906   0   0   0 # s
    103     22   1  0.000000    38.613765927    17.913233935     3.314166387   0   0   0 # s
    104     22   1  0.000000    38.613765927    17.913233935     0.195166906   0   0   0 # s
    105     22   2  0.000000    42.214765998    17.913233935     1.754666646   0   0   0 # Mo
    106     22   2  0.000000    39.513765903    19.472233951     1.754666646   0   0   0 # Mo
    107     22   1  0.000000    41.314765902    19.472233951     3.314166387   0   0   0 # s
    108     22   1  0.000000    41.314765902    19.472233951     0.195166906   0   0   0 # s
    109     23   1  0.000000    22.407765927    21.032233935     3.314166387   0   0   0 # s
    110     23   1  0.000000    22.407765927    21.032233935     0.195166906   0   0   0 # s
    111     23   2  0.000000    26.008765998    21.032233935     1.754666646   0   0   0 # Mo
    112     23   2  0.000000    23.307765903    22.591233951     1.754666646   0   0   0 # Mo
    113     23   1  0.000000    25.108765902    22.591233951     3.314166387   0   0   0 # s
    114     23   1  0.000000    25.108765902    22.591233951     0.195166906   0   0   0 # s
    115     24   1  0.000000    27.809765927    21.032233935     3.314166387   0   0   0 # s
    116     24   1  0.000000    27.809765927    21.032233935     0.195166906   0   0   0 # s
    117     24   2  0.000000    31.410765998    21.032233935     1.754666646   0   0   0 # Mo
    118     24   2  0.000000    28.709765903    22.591233951     1.754666646   0   0   0 # Mo
    119     24   1  0.000000    30.510765902    22.591233951     3.314166387   0   0   0 # s
    120     24   1  0.000000    30.510765902    22.591233951     0.195166906   0   0   0 # s
    121     25   1  0.000000    33.211765927    21.032233935     3.314166387   0   0   0 # s
    122     25   1  0.000000    33.211765927    21.032233935     0.195166906   0   0   0 # s
    123     25   2  0.000000    36.812765998    21.032233935     1.754666646   0   0   0 # Mo
    124     25   2  0.000000    34.111765903    22.591233951     1.754666646   0   0   0 # Mo
    125     25   1  0.000000    35.912765902    22.591233951     3.314166387   0   0   0 # s
    126     25   1  0.000000    35.912765902    22.591233951     0.195166906   0   0   0 # s
    127     26   1  0.000000    38.613765927    21.032233935     3.314166387   0   0   0 # s
    128     26   1  0.000000    38.613765927    21.032233935     0.195166906   0   0   0 # s
    129     26   2  0.000000    42.214765998    21.032233935     1.754666646   0   0   0 # Mo
    130     26   2  0.000000    39.513765903    22.591233951     1.754666646   0   0   0 # Mo
    131     26   1  0.000000    41.314765902    22.591233951     3.314166387   0   0   0 # s
    132     26   1  0.000000    41.314765902    22.591233951     0.195166906   0   0   0 # s
    133     27   1  0.000000    22.407765927    24.151233935     3.314166387   0   0   0 # s
    134     27   1  0.000000    22.407765927    24.151233935     0.195166906   0   0   0 # s
    135     27   2  0.000000    26.008765998    24.151233935     1.754666646   0   0   0 # Mo
    136     27   2  0.000000    23.307765903    25.710233951     1.754666646   0   0   0 # Mo
    137     27   1  0.000000    25.108765902    25.710233951     3.314166387   0   0   0 # s
    138     27   1  0.000000    25.108765902    25.710233951     0.195166906   0   0   0 # s
    139     28   1  0.000000    27.809765927    24.151233935     3.314166387   0   0   0 # s
    140     28   1  0.000000    27.809765927    24.151233935     0.195166906   0   0   0 # s
    141     28   2  0.000000    31.410765998    24.151233935     1.754666646   0   0   0 # Mo
    142     28   2  0.000000    28.709765903    25.710233951     1.754666646   0   0   0 # Mo
    143     28   1  0.000000    30.510765902    25.710233951     3.314166387   0   0   0 # s
    144     28   1  0.000000    30.510765902    25.710233951     0.195166906   0   0   0 # s
    145     29   1  0.000000    33.211765927    24.151233935     3.314166387   0   0   0 # s
    146     29   1  0.000000    33.211765927    24.151233935     0.195166906   0   0   0 # s
    147     29   2  0.000000    36.812765998    24.151233935     1.754666646   0   0   0 # Mo
    148     29   2  0.000000    34.111765903    25.710233951     1.754666646   0   0   0 # Mo
    149     29   1  0.000000    35.912765902    25.710233951     3.314166387   0   0   0 # s
    150     29   1  0.000000    35.912765902    25.710233951     0.195166906   0   0   0 # s
    151     30   1  0.000000    38.613765927    24.151233935     3.314166387   0   0   0 # s
    152     30   1  0.000000    38.613765927    24.151233935     0.195166906   0   0   0 # s
    153     30   2  0.000000    42.214765998    24.151233935     1.754666646   0   0   0 # Mo
    154     30   2  0.000000    39.513765903    25.710233951     1.754666646   0   0   0 # Mo
    155     30   1  0.000000    41.314765902    25.710233951     3.314166387   0   0   0 # s
    156     30   1  0.000000    41.314765902    25.710233951     0.195166906   0   0   0 # s
    157     31   1  0.000000    44.015765927     2.318233935     3.314166387   0   0   0 # s
    158     31   1  0.000000    44.015765927     2.318233935     0.195166906   0   0   0 # s
    159     31   2  0.000000    47.616765998     2.318233935     1.754666646   0   0   0 # Mo
    160     31   2  0.000000    44.915765903     3.877233951     1.754666646   0   0   0 # Mo
    161     31   1  0.000000    46.716765902     3.877233951     3.314166387   0   0   0 # s
    162     31   1  0.000000    46.716765902     3.877233951     0.195166906   0   0   0 # s
    163     32   2  0.000000    44.915765903     0.758233951     1.754666646   0   0   0 # Mo
    164     32   1  0.000000    46.716765902     0.758233951     3.314166387   0   0   0 # s
    165     32   1  0.000000    46.716765902     0.758233951     0.195166906   0   0   0 # s
    166     33   1  0.000000    49.417765927     2.318233935     3.314166387   0   0   0 # s
    167     33   1  0.000000    49.417765927     2.318233935     0.195166906   0   0   0 # s
    168     33   2  0.000000    53.018765998     2.318233935     1.754666646   0   0   0 # Mo
    169     33   2  0.000000    50.317765903     3.877233951     1.754666646   0   0   0 # Mo
    170     33   1  0.000000    52.118765902     3.877233951     3.314166387   0   0   0 # s
    171     33   1  0.000000    52.118765902     3.877233951     0.195166906   0   0   0 # s
    172     34   2  0.000000    50.317765903     0.758233951     1.754666646   0   0   0 # Mo
    173     34   1  0.000000    52.118765902     0.758233951     3.314166387   0   0   0 # s
    174     34   1  0.000000    52.118765902     0.758233951     0.195166906   0   0   0 # s
    175     35   1  0.000000    54.819765927     2.318233935     3.314166387   0   0   0 # s
    176     35   1  0.000000    54.819765927     2.318233935     0.195166906   0   0   0 # s
    177     35   2  0.000000    58.420765998     2.318233935     1.754666646   0   0   0 # Mo
    178     35   2  0.000000    55.719765903     3.877233951     1.754666646   0   0   0 # Mo
    179     35   1  0.000000    57.520765902     3.877233951     3.314166387   0   0   0 # s
    180     35   1  0.000000    57.520765902     3.877233951     0.195166906   0   0   0 # s
    181     36   2  0.000000    55.719765903     0.758233951     1.754666646   0   0   0 # Mo
    182     36   1  0.000000    57.520765902     0.758233951     3.314166387   0   0   0 # s
    183     36   1  0.000000    57.520765902     0.758233951     0.195166906   0   0   0 # s
    184     37   1  0.000000    60.221765927     2.318233935     3.314166387   0   0   0 # s
    185     37   1  0.000000    60.221765927     2.318233935     0.195166906   0   0   0 # s
    186     37   2  0.000000    63.822765998     2.318233935     1.754666646   0   0   0 # Mo
    187     37   2  0.000000    61.121765903     3.877233951     1.754666646   0   0   0 # Mo
    188     37   1  0.000000    62.922765902     3.877233951     3.314166387   0   0   0 # s
    189     37   1  0.000000    62.922765902     3.877233951     0.195166906   0   0   0 # s
    190     38   2  0.000000    61.121765903     0.758233951     1.754666646   0   0   0 # Mo
    191     38   1  0.000000    62.922765902     0.758233951     3.314166387   0   0   0 # s
    192     38   1  0.000000    62.922765902     0.758233951     0.195166906   0   0   0 # s
    193     39   1  0.000000    44.015765927     5.437233935     3.314166387   0   0   0 # s
    194     39   1  0.000000    44.015765927     5.437233935     0.195166906   0   0   0 # s
    195     39   2  0.000000    47.616765998     5.437233935     1.754666646   0   0   0 # Mo
    196     39   2  0.000000    44.915765903     6.996233951     1.754666646   0   0   0 # Mo
    197     39   1  0.000000    46.716765902     6.996233951     3.314166387   0   0   0 # s
    198     39   1  0.000000    46.716765902     6.996233951     0.195166906   0   0   0 # s
    199     40   1  0.000000    49.417765927     5.437233935     3.314166387   0   0   0 # s
    200     40   1  0.000000    49.417765927     5.437233935     0.195166906   0   0   0 # s
    201     40   2  0.000000    53.018765998     5.437233935     1.754666646   0   0   0 # Mo
    202     40   2  0.000000    50.317765903     6.996233951     1.754666646   0   0   0 # Mo
    203     40   1  0.000000    52.118765902     6.996233951     3.314166387   0   0   0 # s
    204     40   1  0.000000    52.118765902     6.996233951     0.195166906   0   0   0 # s
    205     41   1  0.000000    54.819765927     5.437233935     3.314166387   0   0   0 # s
    206     41   1  0.000000    54.819765927     5.437233935     0.195166906   0   0   0 # s
    207     41   2  0.000000    58.420765998     5.437233935     1.754666646   0   0   0 # Mo
    208     42   1  0.000000    60.221765927     5.437233935     3.314166387   0   0   0 # s
    209     42   1  0.000000    60.221765927     5.437233935     0.195166906   0   0   0 # s
    210     42   2  0.000000    63.822765998     5.437233935     1.754666646   0   0   0 # Mo
    211     42   2  0.000000    61.121765903     6.996233951     1.754666646   0   0   0 # Mo
    212     42   1  0.000000    62.922765902     6.996233951     3.314166387   0   0   0 # s
    213     42   1  0.000000    62.922765902     6.996233951     0.195166906   0   0   0 # s
    214     43   1  0.000000    44.015765927     8.556233935     3.314166387   0   0   0 # s
    215     43   1  0.000000    44.015765927     8.556233935     0.195166906   0   0   0 # s
    216     43   2  0.000000    47.616765998     8.556233935     1.754666646   0   0   0 # Mo
    217     43   2  0.000000    44.915765903    10.115233951     1.754666646   0   0   0 # Mo
    218     43   1  0.000000    46.716765902    10.115233951     3.314166387   0   0   0 # s
    219     43   1  0.000000    46.716765902    10.115233951     0.195166906   0   0   0 # s
    220     44   1  0.000000    49.417765927     8.556233935     3.314166387   0   0   0 # s
    221     44   1  0.000000    49.417765927     8.556233935     0.195166906   0   0   0 # s
    222     45   1  0.000000    60.221765927     8.556233935     3.314166387   0   0   0 # s
    223     45   1  0.000000    60.221765927     8.556233935     0.195166906   0   0   0 # s
    224     45   2  0.000000    63.822765998     8.556233935     1.754666646   0   0   0 # Mo
    225     45   2  0.000000    61.121765903    10.115233951     1.754666646   0   0   0 # Mo
    226     45   1  0.000000    62.922765902    10.115233951     3.314166387   0   0   0 # s
    227     45   1  0.000000    62.922765902    10.115233951     0.195166906   0   0   0 # s
    228     46   1  0.000000    44.015765927    11.675233935     3.314166387   0   0   0 # s
    229     46   1  0.000000    44.015765927    11.675233935     0.195166906   0   0   0 # s
    230     46   2  0.000000    44.915765903    13.234233951     1.754666646   0   0   0 # Mo
    231     47   1  0.000000    60.221765927    11.675233935     3.314166387   0   0   0 # s
    232     47   1  0.000000    60.221765927    11.675233935     0.195166906   0   0   0 # s
    233     47   2  0.000000    63.822765998    11.675233935     1.754666646   0   0   0 # Mo
    234     47   2  0.000000    61.121765903    13.234233951     1.754666646   0   0   0 # Mo
    235     47   1  0.000000    62.922765902    13.234233951     3.314166387   0   0   0 # s
    236     47   1  0.000000    62.922765902    13.234233951     0.195166906   0   0   0 # s
    237     48   1  0.000000    44.015765927    14.794233935     3.314166387   0   0   0 # s
    238     48   1  0.000000    44.015765927    14.794233935     0.195166906   0   0   0 # s
    239     48   2  0.000000    44.915765903    16.353233951     1.754666646   0   0   0 # Mo
    240     48   1  0.000000    46.716765902    16.353233951     3.314166387   0   0   0 # s
    241     48   1  0.000000    46.716765902    16.353233951     0.195166906   0   0   0 # s
    242     49   1  0.000000    60.221765927    14.794233935     3.314166387   0   0   0 # s
    243     49   1  0.000000    60.221765927    14.794233935     0.195166906   0   0   0 # s
    244     49   2  0.000000    63.822765998    14.794233935     1.754666646   0   0   0 # Mo
    245     49   2  0.000000    61.121765903    16.353233951     1.754666646   0   0   0 # Mo
    246     49   1  0.000000    62.922765902    16.353233951     3.314166387   0   0   0 # s
    247     49   1  0.000000    62.922765902    16.353233951     0.195166906   0   0   0 # s
    248     50   1  0.000000    44.015765927    17.913233935     3.314166387   0   0   0 # s
    249     50   1  0.000000    44.015765927    17.913233935     0.195166906   0   0   0 # s
    250     50   2  0.000000    47.616765998    17.913233935     1.754666646   0   0   0 # Mo
    251     50   2  0.000000    44.915765903    19.472233951     1.754666646   0   0   0 # Mo
    252     50   1  0.000000    46.716765902    19.472233951     3.314166387   0   0   0 # s
    253     50   1  0.000000    46.716765902    19.472233951     0.195166906   0   0   0 # s
    254     51   1  0.000000    49.417765927    17.913233935     3.314166387   0   0   0 # s
    255     51   1  0.000000    49.417765927    17.913233935     0.195166906   0   0   0 # s
    256     51   2  0.000000    50.317765903    19.472233951     1.754666646   0   0   0 # Mo
    257     51   1  0.000000    52.118765902    19.472233951     3.314166387   0   0   0 # s
    258     51   1  0.000000    52.118765902    19.472233951     0.195166906   0   0   0 # s
    259     52   1  0.000000    60.221765927    17.913233935     3.314166387   0   0   0 # s
    260     52   1  0.000000    60.221765927    17.913233935     0.195166906   0   0   0 # s
    261     52   2  0.000000    63.822765998    17.913233935     1.754666646   0   0   0 # Mo
    262     52   2  0.000000    61.121765903    19.472233951     1.754666646   0   0   0 # Mo
    263     52   1  0.000000    62.922765902    19.472233951     3.314166387   0   0   0 # s
    264     52   1  0.000000    62.922765902    19.472233951     0.195166906   0   0   0 # s
    265     53   1  0.000000    44.015765927    21.032233935     3.314166387   0   0   0 # s
    266     53   1  0.000000    44.015765927    21.032233935     0.195166906   0   0   0 # s
    267     53   2  0.000000    47.616765998    21.032233935     1.754666646   0   0   0 # Mo
    268     53   2  0.000000    44.915765903    22.591233951     1.754666646   0   0   0 # Mo
    269     53   1  0.000000    46.716765902    22.591233951     3.314166387   0   0   0 # s
    270     53   1  0.000000    46.716765902    22.591233951     0.195166906   0   0   0 # s
    271     54   1  0.000000    49.417765927    21.032233935     3.314166387   0   0   0 # s
    272     54   1  0.000000    49.417765927    21.032233935     0.195166906   0   0   0 # s
    273     54   2  0.000000    53.018765998    21.032233935     1.754666646   0   0   0 # Mo
    274     54   2  0.000000    50.317765903    22.591233951     1.754666646   0   0   0 # Mo
    275     54   1  0.000000    52.118765902    22.591233951     3.314166387   0   0   0 # s
    276     54   1  0.000000    52.118765902    22.591233951     0.195166906   0   0   0 # s
    277     55   1  0.000000    54.819765927    21.032233935     3.314166387   0   0   0 # s
    278     55   1  0.000000    54.819765927    21.032233935     0.195166906   0   0   0 # s
    279     55   2  0.000000    58.420765998    21.032233935     1.754666646   0   0   0 # Mo
    280     55   2  0.000000    55.719765903    22.591233951     1.754666646   0   0   0 # Mo
    281     55   1  0.000000    57.520765902    22.591233951     3.314166387   0   0   0 # s
    282     55   1  0.000000    57.520765902    22.591233951     0.195166906   0   0   0 # s
    283     56   1  0.000000    60.221765927    21.032233935     3.314166387   0   0   0 # s
    284     56   1  0.000000    60.221765927    21.032233935     0.195166906   0   0   0 # s
    285     56   2  0.000000    63.822765998    21.032233935     1.754666646   0   0   0 # Mo
    286     56   2  0.000000    61.121765903    22.591233951     1.754666646   0   0   0 # Mo
    287     56   1  0.000000    62.922765902    22.591233951     3.314166387   0   0   0 # s
    288     56   1  0.000000    62.922765902    22.591233951     0.195166906   0   0   0 # s
    289     57   1  0.000000    44.015765927    24.151233935     3.314166387   0   0   0 # s
    290     57   1  0.000000    44.015765927    24.151233935     0.195166906   0   0   0 # s
    291     57   2  0.000000    47.616765998    24.151233935     1.754666646   0   0   0 # Mo
    292     57   2  0.000000    44.915765903    25.710233951     1.754666646   0   0   0 # Mo
    293     57   1  0.000000    46.716765902    25.710233951     3.314166387   0   0   0 # s
    294     57   1  0.000000    46.716765902    25.710233951     0.195166906   0   0   0 # s
    295     58   1  0.000000    49.417765927    24.151233935     3.314166387   0   0   0 # s
    296     58   1  0.000000    49.417765927    24.151233935     0.195166906   0   0   0 # s
    297     58   2  0.000000    53.018765998    24.151233935     1.754666646   0   0   0 # Mo
    298     58   2  0.000000    50.317765903    25.710233951     1.754666646   0   0   0 # Mo
    299     58   1  0.000000    52.118765902    25.710233951     3.314166387   0   0   0 # s
    300     58   1  0.000000    52.118765902    25.710233951     0.195166906   0   0   0 # s
    301     59   1  0.000000    54.819765927    24.151233935     3.314166387   0   0   0 # s
    302     59   1  0.000000    54.819765927    24.151233935     0.195166906   0   0   0 # s
    303     59   2  0.000000    58.420765998    24.151233935     1.754666646   0   0   0 # Mo
    304     59   2  0.000000    55.719765903    25.710233951     1.754666646   0   0   0 # Mo
    305     59   1  0.000000    57.520765902    25.710233951     3.314166387   0   0   0 # s
    306     59   1  0.000000    57.520765902    25.710233951     0.195166906   0   0   0 # s
    307     60   1  0.000000    60.221765927    24.151233935     3.314166387   0   0   0 # s
    308     60   1  0.000000    60.221765927    24.151233935     0.195166906   0   0   0 # s
    309     60   2  0.000000    63.822765998    24.151233935     1.754666646   0   0   0 # Mo
    310     60   2  0.000000    61.121765903    25.710233951     1.754666646   0   0   0 # Mo
    311     60   1  0.000000    62.922765902    25.710233951     3.314166387   0   0   0 # s
    312     60   1  0.000000    62.922765902    25.710233951     0.195166906   0   0   0 # s
    313     61   1  0.000000    65.623765927     2.318233935     3.314166387   0   0   0 # s
    314     61   1  0.000000    65.623765927     2.318233935     0.195166906   0   0   0 # s
    315     61   2  0.000000    69.224765998     2.318233935     1.754666646   0   0   0 # Mo
    316     61   2  0.000000    66.523765903     3.877233951     1.754666646   0   0   0 # Mo