LAMMPS data file. msi2lmp v3.9.9 / 05 Nov 2018 / CGCMM for Si_Crystal_5nm

   8000 atoms
   2 atom types

    -0.678837500    53.628162500 xlo xhi
    -0.678837500    53.628162500 ylo yhi
    -0.678837500    53.628162500 zlo zhi

Masses

   1  28.086000 # Si1
   2  28.086000 # Si2

Pair Coeffs # lj/cut/coul/long

   1   0.01   3.95 # Si1
   2   0.01   3.95 # Si2

Atoms # full

      1      1   1  0.000000     0.000000000     0.000000000     0.000000000   0   0   0 # Si1
      2      1   1  0.000000     0.000000000     2.715350000     2.715350000   0   0   0 # Si1
      3      1   1  0.000000     2.715350000     0.000000000     2.715350000   0   0   0 # Si1
      4      1   1  0.000000     2.715350000     2.715350000     0.000000000   0   0   0 # Si1
      5      1   1  0.000000     4.073025000     1.357675000     4.073025000   0   0   0 # Si1
      6      1   1  0.000000     1.357675000     1.357675000     1.357675000   0   0   0 # Si1
      7      1   1  0.000000     1.357675000     4.073025000     4.073025000   0   0   0 # Si1
      8      1   1  0.000000     4.073025000     4.073025000     1.357675000   0   0   0 # Si1
      9      1   1  0.000000     5.430700000     0.000000000     0.000000000   0   0   0 # Si1
     10      1   1  0.000000     5.430700000     2.715350000     2.715350000   0   0   0 # Si1
     11      1   1  0.000000     8.146050000     0.000000000     2.715350000   0   0   0 # Si1
     12      1   1  0.000000     8.146050000     2.715350000     0.000000000   0   0   0 # Si1
     13      1   1  0.000000     9.503725000     1.357675000     4.073025000   0   0   0 # Si1
     14      1   1  0.000000     6.788375000     1.357675000     1.357675000   0   0   0 # Si1
     15      1   1  0.000000     6.788375000     4.073025000     4.073025000   0   0   0 # Si1
     16      1   1  0.000000     9.503725000     4.073025000     1.357675000   0   0   0 # Si1
     17      1   1  0.000000    10.861400000     0.000000000     0.000000000   0   0   0 # Si1
     18      1   1  0.000000    10.861400000     2.715350000     2.715350000   0   0   0 # Si1
     19      1   1  0.000000    13.576750000     0.000000000     2.715350000   0   0   0 # Si1
     20      1   1  0.000000    13.576750000     2.715350000     0.000000000   0   0   0 # Si1
     21      1   1  0.000000    14.934425000     1.357675000     4.073025000   0   0   0 # Si1
     22      1   1  0.000000    12.219075000     1.357675000     1.357675000   0   0   0 # Si1
     23      1   1  0.000000    12.219075000     4.073025000     4.073025000   0   0   0 # Si1
     24      1   1  0.000000    14.934425000     4.073025000     1.357675000   0   0   0 # Si1
     25      1   1  0.000000    16.292100000     0.000000000     0.000000000   0   0   0 # Si1
     26      1   1  0.000000    16.292100000     2.715350000     2.715350000   0   0   0 # Si1
     27      1   1  0.000000    19.007450000     0.000000000     2.715350000   0   0   0 # Si1
     28      1   1  0.000000    19.007450000     2.715350000     0.000000000   0   0   0 # Si1
     29      1   1  0.000000    20.365125000     1.357675000     4.073025000   0   0   0 # Si1
     30      1   1  0.000000    17.649775000     1.357675000     1.357675000   0   0   0 # Si1
     31      1   1  0.000000    17.649775000     4.073025000     4.073025000   0   0   0 # Si1
     32      1   1  0.000000    20.365125000     4.073025000     1.357675000   0   0   0 # Si1
     33      1   1  0.000000    21.722800000     0.000000000     0.000000000   0   0   0 # Si1
     34      1   1  0.000000    21.722800000     2.715350000     2.715350000   0   0   0 # Si1
     35      1   1  0.000000    24.438150000     0.000000000     2.715350000   0   0   0 # Si1
     36      1   1  0.000000    24.438150000     2.715350000     0.000000000   0   0   0 # Si1
     37      1   2  0.000000    25.795825000     1.357675000     4.073025000   0   0   0 # Si2
     38      1   1  0.000000    23.080475000     1.357675000     1.357675000   0   0   0 # Si1
     39      1   1  0.000000    23.080475000     4.073025000     4.073025000   0   0   0 # Si1
     40      1   2  0.000000    25.795825000     4.073025000     1.357675000   0   0   0 # Si2
     41      1   2  0.000000    27.153500000     0.000000000     0.000000000   0   0   0 # Si2
     42      1   2  0.000000    27.153500000     2.715350000     2.715350000   0   0   0 # Si2
     43      1   2  0.000000    29.868850000     0.000000000     2.715350000   0   0   0 # Si2
     44      1   2  0.000000    29.868850000     2.715350000     0.000000000   0   0   0 # Si2
     45      1   2  0.000000    31.226525000     1.357675000     4.073025000   0   0   0 # Si2
     46      1   2  0.000000    28.511175000     1.357675000     1.357675000   0   0   0 # Si2
     47      1   2  0.000000    28.511175000     4.073025000     4.073025000   0   0   0 # Si2
     48      1   2  0.000000    31.226525000     4.073025000     1.357675000   0   0   0 # Si2
     49      1   2  0.000000    32.584200000     0.000000000     0.000000000   0   0   0 # Si2
     50      1   2  0.000000    32.584200000     2.715350000     2.715350000   0   0   0 # Si2
     51      1   2  0.000000    35.299550000     0.000000000     2.715350000   0   0   0 # Si2
     52      1   2  0.000000    35.299550000     2.715350000     0.000000000   0   0   0 # Si2
     53      1   2  0.000000    36.657225000     1.357675000     4.073025000   0   0   0 # Si2
     54      1   2  0.000000    33.941875000     1.357675000     1.357675000   0   0   0 # Si2
     55      1   2  0.000000    33.941875000     4.073025000     4.073025000   0   0   0 # Si2
     56      1   2  0.000000    36.657225000     4.073025000     1.357675000   0   0   0 # Si2
     57      1   2  0.000000    38.014900000     0.000000000     0.000000000   0   0   0 # Si2
     58      1   2  0.000000    38.014900000     2.715350000     2.715350000   0   0   0 # Si2
     59      1   2  0.000000    40.730250000     0.000000000     2.715350000   0   0   0 # Si2
     60      1   2  0.000000    40.730250000     2.715350000     0.000000000   0   0   0 # Si2
     61      1   2  0.000000    42.087925000     1.357675000     4.073025000   0   0   0 # Si2
     62      1   2  0.000000    39.372575000     1.357675000     1.357675000   0   0   0 # Si2
     63      1   2  0.000000    39.372575000     4.073025000     4.073025000   0   0   0 # Si2
     64      1   2  0.000000    42.087925000     4.073025000     1.357675000   0   0   0 # Si2
     65      1   2  0.000000    43.445600000     0.000000000     0.000000000   0   0   0 # Si2
     66      1   2  0.000000    43.445600000     2.715350000     2.715350000   0   0   0 # Si2
     67      1   2  0.000000    46.160950000     0.000000000     2.715350000   0   0   0 # Si2
     68      1   2  0.000000    46.160950000     2.715350000     0.000000000   0   0   0 # Si2
     69      1   2  0.000000    47.518625000     1.357675000     4.073025000   0   0   0 # Si2
     70      1   2  0.000000    44.803275000     1.357675000     1.357675000   0   0   0 # Si2
     71      1   2  0.000000    44.803275000     4.073025000     4.073025000   0   0   0 # Si2
     72      1   2  0.000000    47.518625000     4.073025000     1.357675000   0   0   0 # Si2
     73      1   2  0.000000    48.876300000     0.000000000     0.000000000   0   0   0 # Si2
     74      1   2  0.000000    48.876300000     2.715350000     2.715350000   0   0   0 # Si2
     75      1   2  0.000000    51.591650000     0.000000000     2.715350000   0   0   0 # Si2
     76      1   2  0.000000    51.591650000     2.715350000     0.000000000   0   0   0 # Si2
     77      1   2  0.000000    52.949325000     1.357675000     4.073025000   0   0   0 # Si2
     78      1   2  0.000000    50.233975000     1.357675000     1.357675000   0   0   0 # Si2
     79      1   2  0.000000    50.233975000     4.073025000     4.073025000   0   0   0 # Si2
     80      1   2  0.000000    52.949325000     4.073025000     1.357675000   0   0   0 # Si2
     81      1   1  0.000000     0.000000000     5.430700000     0.000000000   0   0   0 # Si1
     82      1   1  0.000000     0.000000000     8.146050000     2.715350000   0   0   0 # Si1
     83      1   1  0.000000     2.715350000     5.430700000     2.715350000   0   0   0 # Si1
     84      1   1  0.000000     2.715350000     8.146050000     0.000000000   0   0   0 # Si1
     85      1   1  0.000000     4.073025000     6.788375000     4.073025000   0   0   0 # Si1
     86      1   1  0.000000     1.357675000     6.788375000     1.357675000   0   0   0 # Si1
     87      1   1  0.000000     1.357675000     9.503725000     4.073025000   0   0   0 # Si1
     88      1   1  0.000000     4.073025000     9.503725000     1.357675000   0   0   0 # Si1
     89      1   1  0.000000     5.430700000     5.430700000     0.000000000   0   0   0 # Si1
     90      1   1  0.000000     5.430700000     8.146050000     2.715350000   0   0   0 # Si1
     91      1   1  0.000000     8.146050000     5.430700000     2.715350000   0   0   0 # Si1
     92      1   1  0.000000     8.146050000     8.146050000     0.000000000   0   0   0 # Si1
     93      1   1  0.000000     9.503725000     6.788375000     4.073025000   0   0   0 # Si1
     94      1   1  0.000000     6.788375000     6.788375000     1.357675000   0   0   0 # Si1
     95      1   1  0.000000     6.788375000     9.503725000     4.073025000   0   0   0 # Si1
     96      1   1  0.000000     9.503725000     9.503725000     1.357675000   0   0   0 # Si1
     97      1   1  0.000000    10.861400000     5.430700000     0.000000000   0   0   0 # Si1
     98      1   1  0.000000    10.861400000     8.146050000     2.715350000   0   0   0 # Si1
     99      1   1  0.000000    13.576750000     5.430700000     2.715350000   0   0   0 # Si1
    100      1   1  0.000000    13.576750000     8.146050000     0.000000000   0   0   0 # Si1
    101      1   1  0.000000    14.934425000     6.788375000     4.073025000   0   0   0 # Si1
    102      1   1  0.000000    12.219075000     6.788375000     1.357675000   0   0   0 # Si1
    103      1   1  0.000000    12.219075000     9.503725000     4.073025000   0   0   0 # Si1
    104      1   1  0.000000    14.934425000     9.503725000     1.357675000   0   0   0 # Si1
    105      1   1  0.000000    16.292100000     5.430700000     0.000000000   0   0   0 # Si1
    106      1   1  0.000000    16.292100000     8.146050000     2.715350000   0   0   0 # Si1
    107      1   1  0.000000    19.007450000     5.430700000     2.715350000   0   0   0 # Si1
    108      1   1  0.000000    19.007450000     8.146050000     0.000000000   0   0   0 # Si1
    109      1   1  0.000000    20.365125000     6.788375000     4.073025000   0   0   0 # Si1
    110      1   1  0.000000    17.649775000     6.788375000     1.357675000   0   0   0 # Si1
    111      1   1  0.000000    17.649775000     9.503725000     4.073025000   0   0   0 # Si1
    112      1   1  0.000000    20.365125000     9.503725000     1.357675000   0   0   0 # Si1
    113      1   1  0.000000    21.722800000     5.430700000     0.000000000   0   0   0 # Si1
    114      1   1  0.000000    21.722800000     8.146050000     2.715350000   0   0   0 # Si1
    115      1   1  0.000000    24.438150000     5.430700000     2.715350000   0   0   0 # Si1
    116      1   1  0.000000    24.438150000     8.146050000     0.000000000   0   0   0 # Si1
    117      1   2  0.000000    25.795825000     6.788375000     4.073025000   0   0   0 # Si2
    118      1   1  0.000000    23.080475000     6.788375000     1.357675000   0   0   0 # Si1
    119      1   1  0.000000    23.080475000     9.503725000     4.073025000   0   0   0 # Si1
    120      1   2  0.000000    25.795825000     9.503725000     1.357675000   0   0   0 # Si2
    121      1   2  0.000000    27.153500000     5.430700000     0.000000000   0   0   0 # Si2
    122      1   2  0.000000    27.153500000     8.146050000     2.715350000   0   0   0 # Si2
    123      1   2  0.000000    29.868850000     5.430700000     2.715350000   0   0   0 # Si2
    124      1   2  0.000000    29.868850000     8.146050000     0.000000000   0   0   0 # Si2
    125      1   2  0.000000    31.226525000     6.788375000     4.073025000   0   0   0 # Si2
    126      1   2  0.000000    28.511175000     6.788375000     1.357675000   0   0   0 # Si2
    127      1   2  0.000000    28.511175000     9.503725000     4.073025000   0   0   0 # Si2
    128      1   2  0.000000    31.226525000     9.503725000     1.357675000   0   0   0 # Si2
    129      1   2  0.000000    32.584200000     5.430700000     0.000000000   0   0   0 # Si2
    130      1   2  0.000000    32.584200000     8.146050000     2.715350000   0   0   0 # Si2
    131      1   2  0.000000    35.299550000     5.430700000     2.715350000   0   0   0 # Si2
    132      1   2  0.000000    35.299550000     8.146050000     0.000000000   0   0   0 # Si2
    133      1   2  0.000000    36.657225000     6.788375000     4.073025000   0   0   0 # Si2
    134      1   2  0.000000    33.941875000     6.788375000     1.357675000   0   0   0 # Si2
    135      1   2  0.000000    33.941875000     9.503725000     4.073025000   0   0   0 # Si2
    136      1   2  0.000000    36.657225000     9.503725000     1.357675000   0   0   0 # Si2
    137      1   2  0.000000    38.014900000     5.430700000     0.000000000   0   0   0 # Si2
    138      1   2  0.000000    38.014900000     8.146050000     2.715350000   0   0   0 # Si2
    139      1   2  0.000000    40.730250000     5.430700000     2.715350000   0   0   0 # Si2
    140      1   2  0.000000    40.730250000     8.146050000     0.000000000   0   0   0 # Si2
    141      1   2  0.000000    42.087925000     6.788375000     4.073025000   0   0   0 # Si2
    142      1   2  0.000000    39.372575000     6.788375000     1.357675000   0   0   0 # Si2
    143      1   2  0.000000    39.372575000     9.503725000     4.073025000   0   0   0 # Si2
    144      1   2  0.000000    42.087925000     9.503725000     1.357675000   0   0   0 # Si2
    145      1   2  0.000000    43.445600000     5.430700000     0.000000000   0   0   0 # Si2
    146      1   2  0.000000    43.445600000     8.146050000     2.715350000   0   0   0 # Si2
    147      1   2  0.000000    46.160950000     5.430700000     2.715350000   0   0   0 # Si2
    148      1   2  0.000000    46.160950000     8.146050000     0.000000000   0   0   0 # Si2
    149      1   2  0.000000    47.518625000     6.788375000     4.073025000   0   0   0 # Si2
    150      1   2  0.000000    44.803275000     6.788375000     1.357675000   0   0   0 # Si2
    151      1   2  0.000000    44.803275000     9.503725000     4.073025000   0   0   0 # Si2
    152      1   2  0.000000    47.518625000     9.503725000     1.357675000   0   0   0 # Si2
    153      1   2  0.000000    48.876300000     5.430700000     0.000000000   0   0   0 # Si2
    154      1   2  0.000000    48.876300000     8.146050000     2.715350000   0   0   0 # Si2
    155      1   2  0.000000    51.591650000     5.430700000     2.715350000   0   0   0 # Si2
    156      1   2  0.000000    51.591650000     8.146050000     0.000000000   0   0   0 # Si2
    157      1   2  0.000000    52.949325000     6.788375000     4.073025000   0   0   0 # Si2
    158      1   2  0.000000    50.233975000     6.788375000     1.357675000   0   0   0 # Si2
    159      1   2  0.000000    50.233975000     9.503725000     4.073025000   0   0   0 # Si2
    160      1   2  0.000000    52.949325000     9.503725000     1.357675000   0   0   0 # Si2
    161      1   1  0.000000     0.000000000    10.861400000     0.000000000   0   0   0 # Si1
    162      1   1  0.000000     0.000000000    13.576750000     2.715350000   0   0   0 # Si1
    163      1   1  0.000000     2.715350000    10.861400000     2.715350000   0   0   0 # Si1
    164      1   1  0.000000     2.715350000    13.576750000     0.000000000   0   0   0 # Si1
    165      1   1  0.000000     4.073025000    12.219075000     4.073025000   0   0   0 # Si1
    166      1   1  0.000000     1.357675000    12.219075000     1.357675000   0   0   0 # Si1
    167      1   1  0.000000     1.357675000    14.934425000     4.073025000   0   0   0 # Si1
    168      1   1  0.000000     4.073025000    14.934425000     1.357675000   0   0   0 # Si1
    169      1   1  0.000000     5.430700000    10.861400000     0.000000000   0   0   0 # Si1
    170      1   1  0.000000     5.430700000    13.576750000     2.715350000   0   0   0 # Si1
    171      1   1  0.000000     8.146050000    10.861400000     2.715350000   0   0   0 # Si1
    172      1   1  0.000000     8.146050000    13.576750000     0.000000000   0   0   0 # Si1
    173      1   1  0.000000     9.503725000    12.219075000     4.073025000   0   0   0 # Si1
    174      1   1  0.000000     6.788375000    12.219075000     1.357675000   0   0   0 # Si1
    175      1   1  0.000000     6.788375000    14.934425000     4.073025000   0   0   0 # Si1
    176      1   1  0.000000     9.503725000    14.934425000     1.357675000   0   0   0 # Si1
    177      1   1  0.000000    10.861400000    10.861400000     0.000000000   0   0   0 # Si1
    178      1   1  0.000000    10.861400000    13.576750000     2.715350000   0   0   0 # Si1
    179      1   1  0.000000    13.576750000    10.861400000     2.715350000   0   0   0 # Si1
    180      1   1  0.000000    13.576750000    13.576750000     0.000000000   0   0   0 # Si1
    181      1   1  0.000000    14.934425000    12.219075000     4.073025000   0   0   0 # Si1
    182      1   1  0.000000    12.219075000    12.219075000     1.357675000   0   0   0 # Si1
    183      1   1  0.000000    12.219075000    14.934425000     4.073025000   0   0   0 # Si1
    184      1   1  0.000000    14.934425000    14.934425000     1.357675000   0   0   0 # Si1
    185      1   1  0.000000    16.292100000    10.861400000     0.000000000   0   0   0 # Si1
    186      1   1  0.000000    16.292100000    13.576750000     2.715350000   0   0   0 # Si1
    187      1   1  0.000000    19.007450000    10.861400000     2.715350000   0   0   0 # Si1
    188      1   1  0.000000    19.007450000    13.576750000     0.000000000   0   0   0 # Si1
    189      1   1  0.000000    20.365125000    12.219075000     4.073025000   0   0   0 # Si1
    190      1   1  0.000000    17.649775000    12.219075000     1.357675000   0   0   0 # Si1
    191      1   1  0.000000    17.649775000    14.934425000     4.073025000   0   0   0 # Si1
    192      1   1  0.000000    20.365125000    14.934425000     1.357675000   0   0   0 # Si1
    193      1   1  0.000000    21.722800000    10.861400000     0.000000000   0   0   0 # Si1
    194      1   1  0.000000    21.722800000    13.576750000     2.715350000   0   0   0 # Si1
    195      1   1  0.000000    24.438150000    10.861400000     2.715350000   0   0   0 # Si1
    196      1   1  0.000000    24.438150000    13.576750000     0.000000000   0   0   0 # Si1
    197      1   2  0.000000    25.795825000    12.219075000     4.073025000   0   0   0 # Si2
    198      1   1  0.000000    23.080475000    12.219075000     1.357675000   0   0   0 # Si1
    199      1   1  0.000000    23.080475000    14.934425000     4.073025000   0   0   0 # Si1
    200      1   2  0.000000    25.795825000    14.934425000     1.357675000   0   0   0 # Si2
    201      1   2  0.000000    27.153500000    10.861400000     0.000000000   0   0   0 # Si2
    202      1   2  0.000000    27.153500000    13.576750000     2.715350000   0   0   0 # Si2
    203      1   2  0.000000    29.868850000    10.861400000     2.715350000   0   0   0 # Si2
    204      1   2  0.000000    29.868850000    13.576750000     0.000000000   0   0   0 # Si2
    205      1   2  0.000000    31.226525000    12.219075000     4.073025000   0   0   0 # Si2
    206      1   2  0.000000    28.511175000    12.219075000     1.357675000   0   0   0 # Si2
    207      1   2  0.000000    28.511175000    14.934425000     4.073025000   0   0   0 # Si2
    208      1   2  0.000000    31.226525000    14.934425000     1.357675000   0   0   0 # Si2
    209      1   2  0.000000    32.584200000    10.861400000     0.000000000   0   0   0 # Si2
    210      1   2  0.000000    32.584200000    13.576750000     2.715350000   0   0   0 # Si2
    211      1   2  0.000000    35.299550000    10.861400000     2.715350000   0   0   0 # Si2
    212      1   2  0.000000    35.299550000    13.576750000     0.000000000   0   0   0 # Si2
    213      1   2  0.000000    36.657225000    12.219075000     4.073025000   0   0   0 # Si2
    214      1   2  0.000000    33.941875000    12.219075000     1.357675000   0   0   0 # Si2
    215      1   2  0.000000    33.941875000    14.934425000     4.073025000   0   0   0 # Si2
    216      1   2  0.000000    36.657225000    14.934425000     1.357675000   0   0   0 # Si2
    217      1   2  0.000000    38.014900000    10.861400000     0.000000000   0   0   0 # Si2
    218      1   2  0.000000    38.014900000    13.576750000     2.715350000   0   0   0 # Si2
    219      1   2  0.000000    40.730250000    10.861400000     2.715350000   0   0   0 # Si2
    220      1   2  0.000000    40.730250000    13.576750000     0.000000000   0   0   0 # Si2
    221      1   2  0.000000    42.087925000    12.219075000     4.073025000   0   0   0 # Si2
    222      1   2  0.000000    39.372575000    12.219075000     1.357675000   0   0   0 # Si2
    223      1   2  0.000000    39.372575000    14.934425000     4.073025000   0   0   0 # Si2
    224      1   2  0.000000    42.087925000    14.934425000     1.357675000   0   0   0 # Si2
    225      1   2  0.000000    43.445600000    10.861400000     0.000000000   0   0   0 # Si2
    226      1   2  0.000000    43.445600000    13.576750000     2.715350000   0   0   0 # Si2
    227      1   2  0.000000    46.160950000    10.861400000     2.715350000   0   0   0 # Si2
    228      1   2  0.000000    46.160950000    13.576750000     0.000000000   0   0   0 # Si2
    229      1   2  0.000000    47.518625000    12.219075000     4.073025000   0   0   0 # Si2
    230      1   2  0.000000    44.803275000    12.219075000     1.357675000   0   0   0 # Si2
    231      1   2  0.000000    44.803275000    14.934425000     4.073025000   0   0   0 # Si2
    232      1   2  0.000000    47.518625000    14.934425000     1.357675000   0   0   0 # Si2
    233      1   2  0.000000    48.876300000    10.861400000     0.000000000   0   0   0 # Si2
    234      1   2  0.000000    48.876300000    13.576750000     2.715350000   0   0   0 # Si2
    235      1   2  0.000000    51.591650000    10.861400000     2.715350000   0   0   0 # Si2
    236      1   2  0.000000    51.591650000    13.576750000     0.000000000   0   0   0 # Si2
    237      1   2  0.000000    52.949325000    12.219075000     4.073025000   0   0   0 # Si2
    238      1   2  0.000000    50.233975000    12.219075000     1.357675000   0   0   0 # Si2
    239      1   2  0.000000    50.233975000    14.934425000     4.073025000   0   0   0 # Si2
    240      1   2  0.000000    52.949325000    14.934425000     1.357675000   0   0   0 # Si2
    241      1   1  0.000000     0.000000000    16.292100000     0.000000000   0   0   0 # Si1
    242      1   1  0.000000     0.000000000    19.007450000     2.715350000   0   0   0 # Si1
    243      1   1  0.000000     2.715350000    16.292100000     2.715350000   0   0   0 # Si1
    244      1   1  0.000000     2.715350000    19.007450000     0.000000000   0   0   0 # Si1
    245      1   1  0.000000     4.073025000    17.649775000     4.073025000   0   0   0 # Si1
    246      1   1  0.000000     1.357675000    17.649775000     1.357675000   0   0   0 # Si1
    247      1   1  0.000000     1.357675000    20.365125000     4.073025000   0   0   0 # Si1
    248      1   1  0.000000     4.073025000    20.365125000     1.357675000   0   0   0 # Si1
    249      1   1  0.000000     5.430700000    16.292100000     0.000000000   0   0   0 # Si1
    250      1   1  0.000000     5.430700000    19.007450000     2.715350000   0   0   0 # Si1
    251      1   1  0.000000     8.146050000    16.292100000     2.715350000   0   0   0 # Si1
    252      1   1  0.000000     8.146050000    19.007450000     0.000000000   0   0   0 # Si1
    253      1   1  0.000000     9.503725000    17.649775000     4.073025000   0   0   0 # Si1
    254      1   1  0.000000     6.788375000    17.649775000     1.357675000   0   0   0 # Si1
    255      1   1  0.000000     6.788375000    20.365125000     4.073025000   0   0   0 # Si1
    256      1   1  0.000000     9.503725000    20.365125000     1.357675000   0   0   0 # Si1
    257      1   1  0.000000    10.861400000    16.292100000     0.000000000   0   0   0 # Si1
    258      1   1  0.000000    10.861400000    19.007450000     2.715350000   0   0   0 # Si1
    259      1   1  0.000000    13.576750000    16.292100000     2.715350000   0   0   0 # Si1
    260      1   1  0.000000    13.576750000    19.007450000     0.000000000   0   0   0 # Si1
    261      1   1  0.000000    14.934425000    17.649775000     4.073025000   0   0   0 # Si1
    262      1   1  0.000000    12.219075000    17.649775000     1.357675000   0   0   0 # Si1
    263      1   1  0.000000    12.219075000    20.365125000     4.073025000   0   0   0 # Si1
    264      1   1  0.000000    14.934425000    20.365125000     1.357675000   0   0   0 # Si1
    265      1   1  0.000000    16.292100000    16.292100000     0.000000000   0   0   0 # Si1
    266      1   1  0.000000    16.292100000    19.007450000     2.715350000   0   0   0 # Si1
    267      1   1  0.000000    19.007450000    16.292100000     2.715350000   0   0   0 # Si1
    268      1   1  0.000000    19.007450000    19.007450000     0.000000000   0   0   0 # Si1
    269      1   1  0.000000    20.365125000    17.649775000     4.073025000   0   0   0 # Si1
    270      1   1  0.000000    17.649775000    17.649775000     1.357675000   0   0   0 # Si1
    271      1   1  0.000000    17.649775000    20.365125000     4.073025000   0   0   0 # Si1
    272      1   1  0.000000    20.365125000    20.365125000     1.357675000   0   0   0 # Si1
    273      1   1  0.000000    21.722800000    16.292100000     0.000000000   0   0   0 # Si1
    274      1   1  0.000000    21.722800000    19.007450000     2.715350000   0   0   0 # Si1
    275      1   1  0.000000    24.438150000    16.292100000     2.715350000   0   0   0 # Si1
    276      1   1  0.000000    24.438150000    19.007450000     0.000000000   0   0   0 # Si1
    277      1   2  0.000000    25.795825000    17.649775000     4.073025000   0   0   0 # Si2
    278      1   1  0.000000    23.080475000    17.649775000     1.357675000   0   0   0 # Si1
    279      1   1  0.000000    23.080475000    20.365125000     4.073025000   0   0   0 # Si1
    280      1   2  0.000000    25.795825000    20.365125000     1.357675000   0   0   0 # Si2
    281      1   2  0.000000    27.153500000    16.292100000     0.000000000   0   0   0 # Si2
    282      1   2  0.000000    27.153500000    19.007450000     2.715350000   0   0   0 # Si2
    283      1   2  0.000000    29.868850000    16.292100000     2.715350000   0   0   0 # Si2
    284      1   2  0.000000    29.868850000    19.007450000     0.000000000   0   0   0 # Si2
    285      1   2  0.000000    31.226525000    17.649775000     4.073025000   0   0   0 # Si2
    286      1   2  0.000000    28.511175000    17.649775000     1.357675000   0   0   0 # Si2
    287      1   2  0.000000    28.511175000    20.365125000     4.073025000   0   0   0 # Si2
    288      1   2  0.000000    31.226525000    20.365125000     1.357675000   0   0   0 # Si2
    289      1   2  0.000000    32.584200000    16.292100000     0.000000000   0   0   0 # Si2
    290      1   2  0.000000    32.584200000    19.007450000     2.715350000   0   0   0 # Si2
    291      1   2  0.000000    35.299550000    16.292100000     2.715350000   0   0   0 # Si2
    292      1   2  0.000000    35.299550000    19.007450000     0.000000000   0   0   0 # Si2
    293      1   2  0.000000    36.657225000    17.649775000     4.073025000   0   0   0 # Si2
    294      1   2  0.000000    33.941875000    17.649775000     1.357675000   0   0   0 # Si2
    295      1   2  0.000000    33.941875000    20.365125000     4.073025000   0   0   0 # Si2
    296      1   2  0.000000    36.657225000    20.365125000     1.357675000   0   0   0 # Si2
    297      1   2  0.000000    38.014900000    16.292100000     0.000000000   0   0   0 # Si2
    298      1   2  0.000000    38.014900000    19.007450000     2.715350000   0   0   0 # Si2
    299      1   2  0.000000    40.730250000    16.292100000     2.715350000   0   0   0 # Si2
    300      1   2  0.000000    40.730250000    19.007450000     0.000000000   0   0   0 # Si2
    301      1   2  0.000000    42.087925000    17.649775000     4.073025000   0   0   0 # Si2
    302      1   2  0.000000    39.372575000    17.649775000     1.357675000   0   0   0 # Si2
    303      1   2  0.000000    39.372575000    20.365125000     4.073025000   0   0   0 # Si2
    304      1   2  0.000000    42.087925000    20.365125000     1.357675000   0   0   0 # Si2
    305      1   2  0.000000    43.445600000    16.292100000     0.000000000   0   0   0 # Si2
    306      1   2  0.000000    43.445600000    19.007450000     2.715350000   0   0   0 # Si2
    307      1   2  0.000000    46.160950000    16.292100000     2.715350000   0   0   0 # Si2
    308      1   2  0.000000    46.160950000    19.007450000     0.000000000   0   0   0 # Si2
    309      1   2  0.000000    47.518625000    17.649775000     4.073025000   0   0   0 # Si2
    310      1   2  0.000000    44.803275000    17.649775000     1.357675000   0   0   0 # Si2
    311      1   2  0.000000    44.803275000    20.365125000     4.073025000   0   0   0 # Si2