LAMMPS data file. msi2lmp v3.9.8 / 06 Oct 2016 / CGCMM for cnb 

 3360 atoms
 0 bonds
 0 angles
 0 dihedrals
 0 impropers

 3 atom types
 0 bond types
 0 angle types
 0 dihedral types
 0 improper types

 -0.018000000 126.342000000 xlo xhi
 -0.120050000 67.975950000 ylo yhi
 -50.00000000 50.000000000 zlo zhi

Masses

 1 12.011150 # C_R
 2 14.006700 # N_R
 3 10.810000 # B_2

Atoms # full

 1 1 1 0.000000 0.684000000 1.703800000 4.560000000 0 0 0 # C_R
 2 1 1 0.000000 0.684000000 4.136000000 4.560000000 0 0 0 # C_R
 3 1 1 0.000000 0.684000000 6.567800000 4.560000000 0 0 0 # C_R
 4 1 1 0.000000 0.684000000 9.000000000 4.560000000 0 0 0 # C_R
 5 1 1 0.000000 0.684000000 11.431800000 4.560000000 0 0 0 # C_R
 6 1 1 0.000000 0.684000000 13.864000000 4.560000000 0 0 0 # C_R
 7 1 1 0.000000 0.684000000 16.295800000 4.560000000 0 0 0 # C_R
 8 1 1 0.000000 0.684000000 18.728000000 4.560000000 0 0 0 # C_R
 9 1 1 0.000000 0.684000000 21.159800000 4.560000000 0 0 0 # C_R
 10 1 1 0.000000 0.684000000 23.592000000 4.560000000 0 0 0 # C_R
 11 1 1 0.000000 0.684000000 26.023800000 4.560000000 0 0 0 # C_R
 12 1 1 0.000000 0.684000000 28.456000000 4.560000000 0 0 0 # C_R
 13 1 1 0.000000 0.684000000 30.887800000 4.560000000 0 0 0 # C_R
 14 1 1 0.000000 0.684000000 33.320000000 4.560000000 0 0 0 # C_R
 15 1 1 0.000000 0.684000000 35.751800000 4.560000000 0 0 0 # C_R
 16 1 1 0.000000 0.684000000 38.184000000 4.560000000 0 0 0 # C_R
 17 1 1 0.000000 0.684000000 40.615800000 4.560000000 0 0 0 # C_R
 18 1 1 0.000000 0.684000000 43.048000000 4.560000000 0 0 0 # N_R
 19 1 1 0.000000 0.684000000 45.479800000 4.560000000 0 0 0 # C_R
 20 1 1 0.000000 0.684000000 47.912000000 4.560000000 0 0 0 # C_R
 21 1 1 0.000000 0.684000000 50.343800000 4.560000000 0 0 0 # C_R
 22 1 1 0.000000 0.684000000 52.776000000 4.560000000 0 0 0 # N_R
 23 1 1 0.000000 0.684000000 55.207800000 4.560000000 0 0 0 # N_R
 24 1 1 0.000000 0.684000000 57.640000000 4.560000000 0 0 0 # C_R
 25 1 1 0.000000 0.684000000 60.071800000 4.560000000 0 0 0 # C_R
 26 1 1 0.000000 0.684000000 62.504000000 4.560000000 0 0 0 # C_R
 27 1 1 0.000000 0.684000000 64.935800000 4.560000000 0 0 0 # N_R
 28 1 1 0.000000 0.684000000 67.368000000 4.560000000 0 0 0 # C_R
 29 1 1 0.000000 1.386000000 0.487900000 4.560000000 0 0 0 # C_R
 30 1 1 0.000000 1.386000000 2.920100000 4.560000000 0 0 0 # C_R
 31 1 1 0.000000 1.386000000 5.351900000 4.560000000 0 0 0 # C_R
 32 1 1 0.000000 1.386000000 7.784100000 4.560000000 0 0 0 # C_R
 33 1 1 0.000000 1.386000000 10.215900000 4.560000000 0 0 0 # N_R
 34 1 1 0.000000 1.386000000 12.648100000 4.560000000 0 0 0 # C_R
 35 1 1 0.000000 1.386000000 15.079900000 4.560000000 0 0 0 # C_R
 36 1 1 0.000000 1.386000000 17.512100000 4.560000000 0 0 0 # C_R
 37 1 1 0.000000 1.386000000 19.943900000 4.560000000 0 0 0 # N_R
 38 1 1 0.000000 1.386000000 22.376100000 4.560000000 0 0 0 # N_R
 39 1 1 0.000000 1.386000000 24.807900000 4.560000000 0 0 0 # C_R
 40 1 1 0.000000 1.386000000 27.240100000 4.560000000 0 0 0 # C_R
 41 1 1 0.000000 1.386000000 29.671900000 4.560000000 0 0 0 # C_R
 42 1 1 0.000000 1.386000000 32.104100000 4.560000000 0 0 0 # N_R
 43 1 1 0.000000 1.386000000 34.535900000 4.560000000 0 0 0 # C_R
 44 1 1 0.000000 1.386000000 36.968100000 4.560000000 0 0 0 # C_R
 45 1 1 0.000000 1.386000000 39.399900000 4.560000000 0 0 0 # C_R
 46 1 1 0.000000 1.386000000 41.832100000 4.560000000 0 0 0 # C_R
 47 1 1 0.000000 1.386000000 44.263900000 4.560000000 0 0 0 # C_R
 48 1 1 0.000000 1.386000000 46.696100000 4.560000000 0 0 0 # N_R
 49 1 1 0.000000 1.386000000 49.127900000 4.560000000 0 0 0 # C_R
 50 1 1 0.000000 1.386000000 51.560100000 4.560000000 0 0 0 # C_R
 51 1 1 0.000000 1.386000000 53.991900000 4.560000000 0 0 0 # C_R
 52 1 1 0.000000 1.386000000 56.424100000 4.560000000 0 0 0 # C_R
 53 1 1 0.000000 1.386000000 58.855900000 4.560000000 0 0 0 # C_R
 54 1 1 0.000000 1.386000000 61.288100000 4.560000000 0 0 0 # C_R
 55 1 1 0.000000 1.386000000 63.719900000 4.560000000 0 0 0 # C_R
 56 1 1 0.000000 1.386000000 66.152100000 4.560000000 0 0 0 # C_R
 57 1 1 0.000000 2.790000000 0.487900000 4.560000000 0 0 0 # N_R
 58 1 1 0.000000 2.790000000 2.920100000 4.560000000 0 0 0 # C_R
 59 1 1 0.000000 2.790000000 5.351900000 4.560000000 0 0 0 # C_R
 60 1 1 0.000000 2.790000000 7.784100000 4.560000000 0 0 0 # C_R
 61 1 1 0.000000 2.790000000 10.215900000 4.560000000 0 0 0 # C_R
 62 1 1 0.000000 2.790000000 12.648100000 4.560000000 0 0 0 # C_R
 63 1 1 0.000000 2.790000000 15.079900000 4.560000000 0 0 0 # C_R
 64 1 1 0.000000 2.790000000 17.512100000 4.560000000 0 0 0 # C_R
 65 1 1 0.000000 2.790000000 19.943900000 4.560000000 0 0 0 # C_R
 66 1 1 0.000000 2.790000000 22.376100000 4.560000000 0 0 0 # C_R
 67 1 1 0.000000 2.790000000 24.807900000 4.560000000 0 0 0 # C_R
 68 1 1 0.000000 2.790000000 27.240100000 4.560000000 0 0 0 # C_R
 69 1 1 0.000000 2.790000000 29.671900000 4.560000000 0 0 0 # C_R
 70 1 1 0.000000 2.790000000 32.104100000 4.560000000 0 0 0 # C_R
 71 1 1 0.000000 2.790000000 34.535900000 4.560000000 0 0 0 # C_R
 72 1 1 0.000000 2.790000000 36.968100000 4.560000000 0 0 0 # C_R
 73 1 1 0.000000 2.790000000 39.399900000 4.560000000 0 0 0 # C_R
 74 1 1 0.000000 2.790000000 41.832100000 4.560000000 0 0 0 # C_R
 75 1 1 0.000000 2.790000000 44.263900000 4.560000000 0 0 0 # C_R
 76 1 1 0.000000 2.790000000 46.696100000 4.560000000 0 0 0 # C_R
 77 1 1 0.000000 2.790000000 49.127900000 4.560000000 0 0 0 # C_R
 78 1 1 0.000000 2.790000000 51.560100000 4.560000000 0 0 0 # N_R
 79 1 1 0.000000 2.790000000 53.991900000 4.560000000 0 0 0 # C_R
 80 1 1 0.000000 2.790000000 56.424100000 4.560000000 0 0 0 # C_R
 81 1 1 0.000000 2.790000000 58.855900000 4.560000000 0 0 0 # C_R
 82 1 1 0.000000 2.790000000 61.288100000 4.560000000 0 0 0 # C_R
 83 1 1 0.000000 2.790000000 63.719900000 4.560000000 0 0 0 # C_R
 84 1 1 0.000000 2.790000000 66.152100000 4.560000000 0 0 0 # C_R
 85 1 1 0.000000 3.492000000 1.703800000 4.560000000 0 0 0 # C_R
 86 1 1 0.000000 3.492000000 4.136000000 4.560000000 0 0 0 # C_R
 87 1 1 0.000000 3.492000000 6.567800000 4.560000000 0 0 0 # N_R
 88 1 1 0.000000 3.492000000 9.000000000 4.560000000 0 0 0 # C_R
 89 1 1 0.000000 3.492000000 11.431800000 4.560000000 0 0 0 # C_R
 90 1 1 0.000000 3.492000000 13.864000000 4.560000000 0 0 0 # C_R
 91 1 1 0.000000 3.492000000 16.295800000 4.560000000 0 0 0 # C_R
 92 1 1 0.000000 3.492000000 18.728000000 4.560000000 0 0 0 # C_R
 93 1 1 0.000000 3.492000000 21.159800000 4.560000000 0 0 0 # N_R
 94 1 1 0.000000 3.492000000 23.592000000 4.560000000 0 0 0 # C_R
 95 1 1 0.000000 3.492000000 26.023800000 4.560000000 0 0 0 # C_R
 96 1 1 0.000000 3.492000000 28.456000000 4.560000000 0 0 0 # C_R
 97 1 1 0.000000 3.492000000 30.887800000 4.560000000 0 0 0 # N_R
 98 1 1 0.000000 3.492000000 33.320000000 4.560000000 0 0 0 # N_R
 99 1 1 0.000000 3.492000000 35.751800000 4.560000000 0 0 0 # C_R
 100 1 1 0.000000 3.492000000 38.184000000 4.560000000 0 0 0 # C_R
 101 1 1 0.000000 3.492000000 40.615800000 4.560000000 0 0 0 # C_R
 102 1 1 0.000000 3.492000000 43.048000000 4.560000000 0 0 0 # N_R
 103 1 1 0.000000 3.492000000 45.479800000 4.560000000 0 0 0 # C_R
 104 1 1 0.000000 3.492000000 47.912000000 4.560000000 0 0 0 # C_R
 105 1 1 0.000000 3.492000000 50.343800000 4.560000000 0 0 0 # C_R
 106 1 1 0.000000 3.492000000 52.776000000 4.560000000 0 0 0 # C_R
 107 1 1 0.000000 3.492000000 55.207800000 4.560000000 0 0 0 # C_R
 108 1 1 0.000000 3.492000000 57.640000000 4.560000000 0 0 0 # N_R
 109 1 1 0.000000 3.492000000 60.071800000 4.560000000 0 0 0 # C_R
 110 1 1 0.000000 3.492000000 62.504000000 4.560000000 0 0 0 # C_R
 111 1 1 0.000000 3.492000000 64.935800000 4.560000000 0 0 0 # C_R
 112 1 1 0.000000 3.492000000 67.368000000 4.560000000 0 0 0 # N_R
 113 1 1 0.000000 4.896000000 1.703800000 4.560000000 0 0 0 # N_R
 114 1 1 0.000000 4.896000000 4.136000000 4.560000000 0 0 0 # C_R
 115 1 1 0.000000 4.896000000 6.567800000 4.560000000 0 0 0 # C_R
 116 1 1 0.000000 4.896000000 9.000000000 4.560000000 0 0 0 # C_R
 117 1 1 0.000000 4.896000000 11.431800000 4.560000000 0 0 0 # N_R
 118 1 1 0.000000 4.896000000 13.864000000 4.560000000 0 0 0 # C_R
 119 1 1 0.000000 4.896000000 16.295800000 4.560000000 0 0 0 # C_R
 120 1 1 0.000000 4.896000000 18.728000000 4.560000000 0 0 0 # C_R
 121 1 1 0.000000 4.896000000 21.159800000 4.560000000 0 0 0 # C_R
 122 1 1 0.000000 4.896000000 23.592000000 4.560000000 0 0 0 # C_R
 123 1 1 0.000000 4.896000000 26.023800000 4.560000000 0 0 0 # C_R
 124 1 1 0.000000 4.896000000 28.456000000 4.560000000 0 0 0 # C_R
 125 1 1 0.000000 4.896000000 30.887800000 4.560000000 0 0 0 # C_R
 126 1 1 0.000000 4.896000000 33.320000000 4.560000000 0 0 0 # C_R
 127 1 1 0.000000 4.896000000 35.751800000 4.560000000 0 0 0 # C_R
 128 1 1 0.000000 4.896000000 38.184000000 4.560000000 0 0 0 # C_R
 129 1 1 0.000000 4.896000000 40.615800000 4.560000000 0 0 0 # C_R
 130 1 1 0.000000 4.896000000 43.048000000 4.560000000 0 0 0 # C_R
 131 1 1 0.000000 4.896000000 45.479800000 4.560000000 0 0 0 # C_R
 132 1 1 0.000000 4.896000000 47.912000000 4.560000000 0 0 0 # C_R
 133 1 1 0.000000 4.896000000 50.343800000 4.560000000 0 0 0 # C_R
 134 1 1 0.000000 4.896000000 52.776000000 4.560000000 0 0 0 # C_R
 135 1 1 0.000000 4.896000000 55.207800000 4.560000000 0 0 0 # C_R
 136 1 1 0.000000 4.896000000 57.640000000 4.560000000 0 0 0 # C_R
 137 1 1 0.000000 4.896000000 60.071800000 4.560000000 0 0 0 # C_R
 138 1 1 0.000000 4.896000000 62.504000000 4.560000000 0 0 0 # C_R
 139 1 1 0.000000 4.896000000 64.935800000 4.560000000 0 0 0 # C_R
 140 1 1 0.000000 4.896000000 67.368000000 4.560000000 0 0 0 # C_R
 141 1 1 0.000000 5.598000000 0.487900000 4.560000000 0 0 0 # C_R
 142 1 1 0.000000 5.598000000 2.920100000 4.560000000 0 0 0 # C_R
 143 1 1 0.000000 5.598000000 5.351900000 4.560000000 0 0 0 # C_R
 144 1 1 0.000000 5.598000000 7.784100000 4.560000000 0 0 0 # C_R
 145 1 1 0.000000 5.598000000 10.215900000 4.560000000 0 0 0 # C_R
 146 1 1 0.000000 5.598000000 12.648100000 4.560000000 0 0 0 # C_R
 147 1 1 0.000000 5.598000000 15.079900000 4.560000000 0 0 0 # C_R
 148 1 1 0.000000 5.598000000 17.512100000 4.560000000 0 0 0 # C_R
 149 1 1 0.000000 5.598000000 19.943900000 4.560000000 0 0 0 # C_R
 150 1 1 0.000000 5.598000000 22.376100000 4.560000000 0 0 0 # C_R
 151 1 1 0.000000 5.598000000 24.807900000 4.560000000 0 0 0 # C_R
 152 1 1 0.000000 5.598000000 27.240100000 4.560000000 0 0 0 # C_R
 153 1 1 0.000000 5.598000000 29.671900000 4.560000000 0 0 0 # N_R
 154 1 1 0.000000 5.598000000 32.104100000 4.560000000 0 0 0 # C_R
 155 1 1 0.000000 5.598000000 34.535900000 4.560000000 0 0 0 # C_R
 156 1 1 0.000000 5.598000000 36.968100000 4.560000000 0 0 0 # C_R
 157 1 1 0.000000 5.598000000 39.399900000 4.560000000 0 0 0 # N_R
 158 1 1 0.000000 5.598000000 41.832100000 4.560000000 0 0 0 # N_R
 159 1 1 0.000000 5.598000000 44.263900000 4.560000000 0 0 0 # C_R
 160 1 1 0.000000 5.598000000 46.696100000 4.560000000 0 0 0 # C_R
 161 1 1 0.000000 5.598000000 49.127900000 4.560000000 0 0 0 # C_R
 162 1 1 0.000000 5.598000000 51.560100000 4.560000000 0 0 0 # N_R
 163 1 1 0.000000 5.598000000 53.991900000 4.560000000 0 0 0 # C_R
 164 1 1 0.000000 5.598000000 56.424100000 4.560000000 0 0 0 # C_R
 165 1 1 0.000000 5.598000000 58.855900000 4.560000000 0 0 0 # C_R
 166 1 1 0.000000 5.598000000 61.288100000 4.560000000 0 0 0 # C_R
 167 1 1 0.000000 5.598000000 63.719900000 4.560000000 0 0 0 # C_R
 168 1 1 0.000000 5.598000000 66.152100000 4.560000000 0 0 0 # N_R
 169 1 1 0.000000 7.002000000 0.487900000 4.560000000 0 0 0 # C_R
 170 1 1 0.000000 7.002000000 2.920100000 4.560000000 0 0 0 # C_R
 171 1 1 0.000000 7.002000000 5.351900000 4.560000000 0 0 0 # C_R
 172 1 1 0.000000 7.002000000 7.784100000 4.560000000 0 0 0 # N_R
 173 1 1 0.000000 7.002000000 10.215900000 4.560000000 0 0 0 # N_R
 174 1 1 0.000000 7.002000000 12.648100000 4.560000000 0 0 0 # C_R
 175 1 1 0.000000 7.002000000 15.079900000 4.560000000 0 0 0 # C_R
 176 1 1 0.000000 7.002000000 17.512100000 4.560000000 0 0 0 # C_R
 177 1 1 0.000000 7.002000000 19.943900000 4.560000000 0 0 0 # N_R
 178 1 1 0.000000 7.002000000 22.376100000 4.560000000 0 0 0 # C_R
 179 1 1 0.000000 7.002000000 24.807900000 4.560000000 0 0 0 # C_R
 180 1 1 0.000000 7.002000000 27.240100000 4.560000000 0 0 0 # C_R
 181 1 1 0.000000 7.002000000 29.671900000 4.560000000 0 0 0 # C_R
 182 1 1 0.000000 7.002000000 32.104100000 4.560000000 0 0 0 # C_R
 183 1 1 0.000000 7.002000000 34.535900000 4.560000000 0 0 0 # N_R
 184 1 1 0.000000 7.002000000 36.968100000 4.560000000 0 0 0 # C_R
 185 1 1 0.000000 7.002000000 39.399900000 4.560000000 0 0 0 # C_R
 186 1 1 0.000000 7.002000000 41.832100000 4.560000000 0 0 0 # C_R
 187 1 1 0.000000 7.002000000 44.263900000 4.560000000 0 0 0 # C_R
 188 1 1 0.000000 7.002000000 46.696100000 4.560000000 0 0 0 # C_R
 189 1 1 0.000000 7.002000000 49.127900000 4.560000000 0 0 0 # C_R
 190 1 1 0.000000 7.002000000 51.560100000 4.560000000 0 0 0 # C_R
 191 1 1 0.000000 7.002000000 53.991900000 4.560000000 0 0 0 # C_R
 192 1 1 0.000000 7.002000000 56.424100000 4.560000000 0 0 0 # N_R
 193 1 1 0.000000 7.002000000 58.855900000 4.560000000 0 0 0 # C_R
 194 1 1 0.000000 7.002000000 61.288100000 4.560000000 0 0 0 # C_R
 195 1 1 0.000000 7.002000000 63.719900000 4.560000000 0 0 0 # C_R
 196 1 1 0.000000 7.002000000 66.152100000 4.560000000 0 0 0 # C_R
 197 1 1 0.000000 7.704000000 1.703800000 4.560000000 0 0 0 # C_R
 198 1 1 0.000000 7.704000000 4.136000000 4.560000000 0 0 0 # C_R
 199 1 1 0.000000 7.704000000 6.567800000 4.560000000 0 0 0 # C_R
 200 1 1 0.000000 7.704000000 9.000000000 4.560000000 0 0 0 # C_R
 201 1 1 0.000000 7.704000000 11.431800000 4.560000000 0 0 0 # C_R
 202 1 1 0.000000 7.704000000 13.864000000 4.560000000 0 0 0 # C_R
 203 1 1 0.000000 7.704000000 16.295800000 4.560000000 0 0 0 # C_R
 204 1 1 0.000000 7.704000000 18.728000000 4.560000000 0 0 0 # C_R
 205 1 1 0.000000 7.704000000 21.159800000 4.560000000 0 0 0 # C_R
 206 1 1 0.000000 7.704000000 23.592000000 4.560000000 0 0 0 # C_R
 207 1 1 0.000000 7.704000000 26.023800000 4.560000000 0 0 0 # C_R
 208 1 1 0.000000 7.704000000 28.456000000 4.560000000 0 0 0 # C_R
 209 1 1 0.000000 7.704000000 30.887800000 4.560000000 0 0 0 # C_R
 210 1 1 0.000000 7.704000000 33.320000000 4.560000000 0 0 0 # C_R
 211 1 1 0.000000 7.704000000 35.751800000 4.560000000 0 0 0 # C_R
 212 1 1 0.000000 7.704000000 38.184000000 4.560000000 0 0 0 # C_R
 213 1 1 0.000000 7.704000000 40.615800000 4.560000000 0 0 0 # C_R
 214 1 1 0.000000 7.704000000 43.048000000 4.560000000 0 0 0 # C_R
 215 1 1 0.000000 7.704000000 45.479800000 4.560000000 0 0 0 # C_R
 216 1 1 0.000000 7.704000000 47.912000000 4.560000000 0 0 0 # C_R
 217 1 1 0.000000 7.704000000 50.343800000 4.560000000 0 0 0 # C_R
 218 1 1 0.000000 7.704000000 52.776000000 4.560000000 0 0 0 # C_R
 219 1 1 0.000000 7.704000000 55.207800000 4.560000000 0 0 0 # C_R
 220 1 1 0.000000 7.704000000 57.640000000 4.560000000 0 0 0 # C_R
 221 1 1 0.000000 7.704000000 60.071800000 4.560000000 0 0 0 # C_R
 222 1 1 0.000000 7.704000000 62.504000000 4.560000000 0 0 0 # C_R
 223 1 1 0.000000 7.704000000 64.935800000 4.560000000 0 0 0 # C_R
 224 1 1 0.000000 7.704000000 67.368000000 4.560000000 0 0 0 # C_R
 225 1 1 0.000000 9.108000000 1.703800000 4.560000000 0 0 0 # C_R
 226 1 1 0.000000 9.108000000 4.136000000 4.560000000 0 0 0 # C_R
 227 1 1 0.000000 9.108000000 6.567800000 4.560000000 0 0 0 # C_R
 228 1 1 0.000000 9.108000000 9.000000000 4.560000000 0 0 0 # C_R
 229 1 1 0.000000 9.108000000 11.431800000 4.560000000 0 0 0 # B_2
 230 1 1 0.000000 9.108000000 13.864000000 4.560000000 0 0 0 # C_R
 231 1 1 0.000000 9.108000000 16.295800000 4.560000000 0 0 0 # C_R
 232 1 1 0.000000 9.108000000 18.728000000 4.560000000 0 0 0 # C_R
 233 1 1 0.000000 9.108000000 21.159800000 4.560000000 0 0 0 # B_2
 234 1 1 0.000000 9.108000000 23.592000000 4.560000000 0 0 0 # B_2
 235 1 1 0.000000 9.108000000 26.023800000 4.560000000 0 0 0 # C_R
 236 1 1 0.000000 9.108000000 28.456000000 4.560000000 0 0 0 # C_R
 237 1 1 0.000000 9.108000000 30.887800000 4.560000000 0 0 0 # C_R
 238 1 1 0.000000 9.108000000 33.320000000 4.560000000 0 0 0 # B_2
 239 1 1 0.000000 9.108000000 35.751800000 4.560000000 0 0 0 # C_R
 240 1 1 0.000000 9.108000000 38.184000000 4.560000000 0 0 0 # C_R
 241 1 1 0.000000 9.108000000 40.615800000 4.560000000 0 0 0 # C_R
 242 1 1 0.000000 9.108000000 43.048000000 4.560000000 0 0 0 # C_R
 243 1 1 0.000000 9.108000000 45.479800000 4.560000000 0 0 0 # C_R
 244 1 1 0.000000 9.108000000 47.912000000 4.560000000 0 0 0 # B_2
 245 1 1 0.000000 9.108000000 50.343800000 4.560000000 0 0 0 # C_R
 246 1 1 0.000000 9.108000000 52.776000000 4.560000000 0 0 0 # C_R
 247 1 1 0.000000 9.108000000 55.207800000 4.560000000 0 0 0 # C_R
 248 1 1 0.000000 9.108000000 57.640000000 4.560000000 0 0 0 # B_2
 249 1 1 0.000000 9.108000000 60.071800000 4.560000000 0 0 0 # B_2
 250 1 1 0.000000 9.108000000 62.504000000 4.560000000 0 0 0 # C_R
 251 1 1 0.000000 9.108000000 64.935800000 4.560000000 0 0 0 # C_R
 252 1 1 0.000000 9.108000000 67.368000000 4.560000000 0 0 0 # C_R
 253 1 1 0.000000 9.810000000 0.487900000 4.560000000 0 0 0 # B_2
 254 1 1 0.000000 9.810000000 2.920100000 4.560000000 0 0 0 # C_R
 255 1 1 0.000000 9.810000000 5.351900000 4.560000000 0 0 0 # C_R
 256 1 1 0.000000 9.810000000 7.784100000 4.560000000 0 0 0 # C_R
 257 1 1 0.000000 9.810000000 10.215900000 4.560000000 0 0 0 # C_R
 258 1 1 0.000000 9.810000000 12.648100000 4.560000000 0 0 0 # C_R
 259 1 1 0.000000 9.810000000 15.079900000 4.560000000 0 0 0 # B_2
 260 1 1 0.000000 9.810000000 17.512100000 4.560000000 0 0 0 # C_R
 261 1 1 0.000000 9.810000000 19.943900000 4.560000000 0 0 0 # C_R
 262 1 1 0.000000 9.810000000 22.376100000 4.560000000 0 0 0 # C_R
 263 1 1 0.000000 9.810000000 24.807900000 4.560000000 0 0 0 # C_R
 264 1 1 0.000000 9.810000000 27.240100000 4.560000000 0 0 0 # C_R
 265 1 1 0.000000 9.810000000 29.671900000 4.560000000 0 0 0 # C_R
 266 1 1 0.000000 9.810000000 32.104100000 4.560000000 0 0 0 # C_R
 267 1 1 0.000000 9.810000000 34.535900000 4.560000000 0 0 0 # C_R
 268 1 1 0.000000 9.810000000 36.968100000 4.560000000 0 0 0 # B_2
 269 1 1 0.000000 9.810000000 39.399900000 4.560000000 0 0 0 # C_R
 270 1 1 0.000000 9.810000000 41.832100000 4.560000000 0 0 0 # C_R
 271 1 1 0.000000 9.810000000 44.263900000 4.560000000 0 0 0 # C_R
 272 1 1 0.000000 9.810000000 46.696100000 4.560000000 0 0 0 # C_R
 273 1 1 0.000000 9.810000000 49.127900000 4.560000000 0 0 0 # C_R
 274 1 1 0.000000 9.810000000 51.560100000 4.560000000 0 0 0 # C_R
 275 1 1 0.000000 9.810000000 53.991900000 4.560000000 0 0 0 # C_R
 276 1 1 0.000000 9.810000000 56.424100000 4.560000000 0 0 0 # C_R
 277 1 1 0.000000 9.810000000 58.855900000 4.560000000 0 0 0 # C_R
 278 1 1 0.000000 9.810000000 61.288100000 4.560000000 0 0 0 # C_R
 279 1 1 0.000000 9.810000000 63.719900000 4.560000000 0 0 0 # C_R
 280 1 1 0.000000 9.810000000 66.152100000 4.560000000 0 0 0 # C_R
 281 1 1 0.000000 11.214000000 0.487900000 4.560000000 0 0 0 # C_R
 282 1 1 0.000000 11.214000000 2.920100000 4.560000000 0 0 0 # C_R
 283 1 1 0.000000 11.214000000 5.351900000 4.560000000 0 0 0 # C_R
 284 1 1 0.000000 11.214000000 7.784100000 4.560000000 0 0 0 # C_R
 285 1 1 0.000000 11.214000000 10.215900000 4.560000000 0 0 0 # C_R
 286 1 1 0.000000 11.214000000 12.648100000 4.560000000 0 0 0 # C_R
 287 1 1 0.000000 11.214000000 15.079900000 4.560000000 0 0 0 # C_R
 288 1 1 0.000000 11.214000000 17.512100000 4.560000000 0 0 0 # C_R
 289 1 1 0.000000 11.214000000 19.943900000 4.560000000 0 0 0 # B_2
 290 1 1 0.000000 11.214000000 22.376100000 4.560000000 0 0 0 # C_R
 291 1 1 0.000000 11.214000000 24.807900000 4.560000000 0 0 0 # C_R
 292 1 1 0.000000 11.214000000 27.240100000 4.560000000 0 0 0 # C_R
 293 1 1 0.000000 11.214000000 29.671900000 4.560000000 0 0 0 # C_R
 294 1 1 0.000000 11.214000000 32.104100000 4.560000000 0 0 0 # C_R
 295 1 1 0.000000 11.214000000 34.535900000 4.560000000 0 0 0 # C_R
 296 1 1 0.000000 11.214000000 36.968100000 4.560000000 0 0 0 # C_R
 297 1 1 0.000000 11.214000000 39.399900000 4.560000000 0 0 0 # C_R
 298 1 1 0.000000 11.214000000 41.832100000 4.560000000 0 0 0 # B_2
 299 1 1 0.000000 11.214000000 44.263900000 4.560000000 0 0 0 # C_R
 300 1 1 0.000000 11.214000000 46.696100000 4.560000000 0 0 0 # C_R
 301 1 1 0.000000 11.214000000 49.127900000 4.560000000 0 0 0 # C_R
 302 1 1 0.000000 11.214000000 51.560100000 4.560000000 0 0 0 # C_R
 303 1 1 0.000000 11.214000000 53.991900000 4.560000000 0 0 0 # C_R
 304 1 1 0.000000 11.214000000 56.424100000 4.560000000 0 0 0 # B_2
 305 1 1 0.000000 11.214000000 58.855900000 4.560000000 0 0 0 # C_R
 306 1 1 0.000000 11.214000000 61.288100000 4.560000000 0 0 0 # C_R
 307 1 1 0.000000 11.214000000 63.719900000 4.560000000 0 0 0 # C_R
 308 1 1 0.000000 11.214000000 66.152100000 4.560000000 0 0 0 # B_2
 309 1 1 0.000000 11.916000000 1.703800000 4.560000000 0 0 0 # B_2
 310 1 1 0.000000 11.916000000 4.136000000 4.560000000 0 0 0 # C_R
 311 1 1 0.000000 11.916000000 6.567800000 4.560000000 0 0 0 # C_R
 312 1 1 0.000000 11.916000000 9.000000000 4.560000000 0 0 0 # C_R
 313 1 1 0.000000 11.916000000 11.431800000 4.560000000 0 0 0 # B_2
 314 1 1 0.000000 11.916000000 13.864000000 4.560000000 0 0 0 # C_R
 315 1 1 0.000000 11.916000000 16.295800000 4.560000000 0 0 0 # C_R
 316 1 1 0.000000 11.916000000 18.728000000 4.560000000 0 0 0 # C_R
 317 1 1 0.000000 11.916000000 21.159800000 4.560000000 0 0 0 # C_R
 318 1 1 0.000000 11.916000000 23.592000000 4.560000000 0 0 0 # C_R
 319 1 1 0.000000 11.916000000 26.023800000 4.560000000 0 0 0 # B_2
 320 1 1 0.000000 11.916000000 28.456000000 4.560000000 0 0 0 # C_R
 321 1 1 0.000000 11.916000000 30.887800000 4.560000000 0 0 0 # C_R
 322 1 1 0.000000 11.916000000 33.320000000 4.560000000 0 0 0 # C_R
 323 1 1 0.000000 11.916000000 35.751800000 4.560000000 0 0 0 # B_2
 324 1 1 0.000000 11.916000000 38.184000000 4.560000000 0 0 0 # B_2
 325 1 1 0.000000 11.916000000 40.615800000 4.560000000 0 0 0 # C_R
 326 1 1 0.000000 11.916000000 43.048000000 4.560000000 0 0 0 # C_R
 327 1 1 0.000000 11.916000000 45.479800000 4.560000000 0 0 0 # C_R
 328 1 1 0.000000 11.916000000 47.912000000 4.560000000 0 0 0 # B_2
 329 1 1 0.000000 11.916000000 50.343800000 4.560000000 0 0 0 # C_R
 330 1 1 0.000000 11.916000000 52.776000000 4.560000000 0 0 0 # C_R
 331 1 1 0.000000 11.916000000 55.207800000 4.560000000 0 0 0 # C_R
 332 1 1 0.000000 11.916000000 57.640000000 4.560000000 0 0 0 # C_R
 333 1 1 0.000000 11.916000000 60.071800000 4.560000000 0 0 0 # C_R
 334 1 1 0.000000 11.916000000 62.504000000 4.560000000 0 0 0 # C_R
 335 1 1 0.000000 11.916000000 64.935800000 4.560000000 0 0 0 # C_R
 336 1 1 0.000000 11.916000000 67.368000000 4.560000000 0 0 0 # C_R
 337 1 1 0.000000 13.320000000 1.703800000 4.560000000 0 0 0 # C_R
 338 1 1 0.000000 13.320000000 4.136000000 4.560000000 0 0 0 # C_R
 339 1 1 0.000000 13.320000000 6.567800000 4.560000000 0 0 0 # C_R
 340 1 1 0.000000 13.320000000 9.000000000 4.560000000 0 0 0 # C_R
 341 1 1 0.000000 13.320000000 11.431800000 4.560000000 0 0 0 # C_R
 342 1 1 0.000000 13.320000000 13.864000000 4.560000000 0 0 0 # C_R
 343 1 1 0.000000 13.320000000 16.295800000 4.560000000 0 0 0 # C_R
 344 1 1 0.000000 13.320000000 18.728000000 4.560000000 0 0 0 # C_R
 345 1 1 0.000000 13.320000000 21.159800000 4.560000000 0 0 0 # C_R
 346 1 1 0.000000 13.320000000 23.592000000 4.560000000 0 0 0 # C_R
 347 1 1 0.000000 13.320000000 26.023800000 4.560000000 0 0 0 # C_R
 348 1 1 0.000000 13.320000000 28.456000000 4.560000000 0 0 0 # C_R
 349 1 1 0.000000 13.320000000 30.887800000 4.560000000 0 0 0 # C_R
 350 1 1 0.000000 13.320000000 33.320000000 4.560000000 0 0 0 # C_R
 351 1 1 0.000000 13.320000000 35.751800000 4.560000000 0 0 0 # C_R
 352 1 1 0.000000 13.320000000 38.184000000 4.560000000 0 0 0 # C_R
 353 1 1 0.000000 13.320000000 40.615800000 4.560000000 0 0 0 # C_R
 354 1 1 0.000000 13.320000000 43.048000000 4.560000000 0 0 0 # C_R
 355 1 1 0.000000 13.320000000 45.479800000 4.560000000 0 0 0 # C_R
 356 1 1 0.000000 13.320000000 47.912000000 4.560000000 0 0 0 # C_R
 357 1 1 0.000000 13.320000000 50.343800000 4.560000000 0 0 0 # C_R
 358 1 1 0.000000 13.320000000 52.776000000 4.560000000 0 0 0 # C_R
 359 1 1 0.000000 13.320000000 55.207800000 4.560000000 0 0 0 # C_R
 360 1 1 0.000000 13.320000000 57.640000000 4.560000000 0 0 0 # C_R
 361 1 1 0.000000 13.320000000 60.071800000 4.560000000 0 0 0 # C_R
 362 1 1 0.000000 13.320000000 62.504000000 4.560000000 0 0 0 # C_R
 363 1 1 0.000000 13.320000000 64.935800000 4.560000000 0 0 0 # C_R
 364 1 1 0.000000 13.320000000 67.368000000 4.560000000 0 0 0 # B_2
 365 1 1 0.000000 14.022000000 0.487900000 4.560000000 0 0 0 # C_R
 366 1 1 0.000000 14.022000000 2.920100000 4.560000000 0 0 0 # C_R
 367 1 1 0.000000 14.022000000 5.351900000 4.560000000 0 0 0 # C_R
 368 1 1 0.000000 14.022000000 7.784100000 4.560000000 0 0 0 # B_2
 369 1 1 0.000000 14.022000000 10.215900000 4.560000000 0 0 0 # B_2
 370 1 1 0.000000 14.022000000 12.648100000 4.560000000 0 0 0 # C_R
 371 1 1 0.000000 14.022000000 15.079900000 4.560000000 0 0 0 # C_R
 372 1 1 0.000000 14.022000000 17.512100000 4.560000000 0 0 0 # C_R
 373 1 1 0.000000 14.022000000 19.943900000 4.560000000 0 0 0 # B_2
 374 1 1 0.000000 14.022000000 22.376100000 4.560000000 0 0 0 # C_R
 375 1 1 0.000000 14.022000000 24.807900000 4.560000000 0 0 0 # C_R
 376 1 1 0.000000 14.022000000 27.240100000 4.560000000 0 0 0 # C_R
 377 1 1 0.000000 14.022000000 29.671900000 4.560000000 0 0 0 # C_R
 378 1 1 0.000000 14.022000000 32.104100000 4.560000000 0 0 0 # C_R
 379 1 1 0.000000 14.022000000 34.535900000 4.560000000 0 0 0 # B_2
 380 1 1 0.000000 14.022000000 36.968100000 4.560000000 0 0 0 # C_R
 381 1 1 0.000000 14.022000000 39.399900000 4.560000000 0 0 0 # C_R
 382 1 1 0.000000 14.022000000 41.832100000 4.560000000 0 0 0 # C_R
 383 1 1 0.000000 14.022000000 44.263900000 4.560000000 0 0 0 # B_2
 384 1 1 0.000000 14.022000000 46.696100000 4.560000000 0 0 0 # B_2
 385 1 1 0.000000 14.022000000 49.127900000 4.560000000 0 0 0 # C_R
 386 1 1 0.000000 14.022000000 51.560100000 4.560000000 0 0 0 # C_R
 387 1 1 0.000000 14.022000000 53.991900000 4.560000000 0 0 0 # C_R
 388 1 1 0.000000 14.022000000 56.424100000 4.560000000 0 0 0 # B_2
 389 1 1 0.000000 14.022000000 58.855900000 4.560000000 0 0 0 # C_R
 390 1 1 0.000000 14.022000000 61.288100000 4.560000000 0 0 0 # C_R
 391 1 1 0.000000 14.022000000 63.719900000 4.560000000 0 0 0 # C_R
 392 1 1 0.000000 14.022000000 66.152100000 4.560000000 0 0 0 # C_R
 393 1 1 0.000000 15.426000000 0.487900000 4.560000000 0 0 0 # C_R
 394 1 1 0.000000 15.426000000 2.920100000 4.560000000 0 0 0 # B_2
 395 1 1 0.000000 15.426000000 5.351900000 4.560000000 0 0 0 # C_R
 396 1 1 0.000000 15.426000000 7.784100000 4.560000000 0 0 0 # C_R
 397 1 1 0.000000 15.426000000 10.215900000 4.560000000 0 0 0 # C_R
 398 1 1 0.000000 15.426000000 12.648100000 4.560000000 0 0 0 # C_R
 399 1 1 0.000000 15.426000000 15.079900000 4.560000000 0 0 0 # C_R
 400 1 1 0.000000 15.426000000 17.512100000 4.560000000 0 0 0 # C_R
 401 1 1 0.000000 15.426000000 19.943900000 4.560000000 0 0 0 # C_R
 402 1 1 0.000000 15.426000000 22.376100000 4.560000000 0 0 0 # C_R
 403 1 1 0.000000 15.426000000 24.807900000 4.560000000 0 0 0 # B_2
 404 1 1 0.000000 15.426000000 27.240100000 4.560000000 0 0 0 # C_R
 405 1 1 0.000000 15.426000000 29.671900000 4.560000000 0 0 0 # C_R
 406 1 1 0.000000 15.426000000 32.104100000 4.560000000 0 0 0 # C_R
 407 1 1 0.000000 15.426000000 34.535900000 4.560000000 0 0 0 # C_R
 408 1 1 0.000000 15.426000000 36.968100000 4.560000000 0 0 0 # C_R
 409 1 1 0.000000 15.426000000 39.399900000 4.560000000 0 0 0 # C_R
 410 1 1 0.000000 15.426000000 41.832100000 4.560000000 0 0 0 # C_R
 411 1 1 0.000000 15.426000000 44.263900000 4.560000000 0 0 0 # C_R
 412 1 1 0.000000 15.426000000 46.696100000 4.560000000 0 0 0 # C_R
 413 1 1 0.000000 15.426000000 49.127900000 4.560000000 0 0 0 # C_R
 414 1 1 0.000000 15.426000000 51.560100000 4.560000000 0 0 0 # C_R
 415 1 1 0.000000 15.426000000 53.991900000 4.560000000 0 0 0 # C_R
 416 1 1 0.000000 15.426000000 56.424100000 4.560000000 0 0 0 # C_R
 417 1 1 0.000000 15.426000000 58.855900000 4.560000000 0 0 0 # C_R
 418 1 1 0.000000 15.426000000 61.288100000 4.560000000 0 0 0 # C_R
 419 1 1 0.000000 15.426000000 63.719900000 4.560000000 0 0 0 # C_R
 420 1 1 0.000000 15.426000000 66.152100000 4.560000000 0 0 0 # C_R
 421 1 1 0.000000 16.128000000 1.703800000 4.560000000 0 0 0 # C_R
 422 1 1 0.000000 16.128000000 4.136000000 4.560000000 0 0 0 # C_R
 423 1 1 0.000000 16.128000000 6.567800000 4.560000000 0 0 0 # C_R
 424 1 1 0.000000 16.128000000 9.000000000 4.560000000 0 0 0 # C_R
 425 1 1 0.000000 16.128000000 11.431800000 4.560000000 0 0 0 # C_R
 426 1 1 0.000000 16.128000000 13.864000000 4.560000000 0 0 0 # C_R
 427 1 1 0.000000 16.128000000 16.295800000 4.560000000 0 0 0 # C_R
 428 1 1 0.000000 16.128000000 18.728000000 4.560000000 0 0 0 # C_R
 429 1 1 0.000000 16.128000000 21.159800000 4.560000000 0 0 0 # C_R
 430 1 1 0.000000 16.128000000 23.592000000 4.560000000 0 0 0 # C_R
 431 1 1 0.000000 16.128000000 26.023800000 4.560000000 0 0 0 # C_R
 432 1 1 0.000000 16.128000000 28.456000000 4.560000000 0 0 0 # C_R
 433 1 1 0.000000 16.128000000 30.887800000 4.560000000 0 0 0 # C_R
 434 1 1 0.000000 16.128000000 33.320000000 4.560000000 0 0 0 # C_R
 435 1 1 0.000000 16.128000000 35.751800000 4.560000000 0 0 0 # C_R
 436 1 1 0.000000 16.128000000 38.184000000 4.560000000 0 0 0 # C_R
 437 1 1 0.000000 16.128000000 40.615800000 4.560000000 0 0 0 # C_R
 438 1 1 0.000000 16.128000000 43.048000000 4.560000000 0 0 0 # N_R
 439 1 1 0.000000 16.128000000 45.479800000 4.560000000 0 0 0 # N_R
 440 1 1 0.000000 16.128000000 47.912000000 4.560000000 0 0 0 # C_R
 441 1 1 0.000000 16.128000000 50.343800000 4.560000000 0 0 0 # C_R
 442 1 1 0.000000 16.128000000 52.776000000 4.560000000 0 0 0 # C_R