Disp. Num. 3 ( 0.040000 Angstrom, 1 : +x, 1 : +y)
    240 atoms

   2 atom types

    -0.250734074    26.759265926 xlo xhi
    -0.021266057    24.930733943 ylo yhi
    -1.805557367    48.194442633 zlo zhi
0.000000    0.000000    0.000000   xy xz yz
Masses

   1  32.064000 # s
   2  95.940000 # Mo

Atoms

    1   1   0.839765927000000   2.358233935000000  24.753942374000001
    2   1   0.799765927000000   2.318233935000000  21.634942892000002
    3   2   4.400765998000000   2.318233935000000  23.194442633000001
    4   2   1.699765903000000   3.877233951000000  23.194442633000001
    5   1   3.500765902000000   3.877233951000000  24.753942374000001
    6   1   3.500765902000000   3.877233951000000  21.634942892000002
    7   2   1.699765903000000   0.758233951000000  23.194442633000001
    8   1   3.500765902000000   0.758233951000000  24.753942374000001
    9   1   3.500765902000000   0.758233951000000  21.634942892000002
   10   1   6.201765927000000   2.318233935000000  24.753942374000001
   11   1   6.201765927000000   2.318233935000000  21.634942892000002
   12   2   9.802765998000000   2.318233935000000  23.194442633000001
   13   2   7.101765903000000   3.877233951000000  23.194442633000001
   14   1   8.902765902000001   3.877233951000000  24.753942374000001
   15   1   8.902765902000001   3.877233951000000  21.634942892000002
   16   2   7.101765903000000   0.758233951000000  23.194442633000001
   17   1   8.902765902000001   0.758233951000000  24.753942374000001
   18   1   8.902765902000001   0.758233951000000  21.634942892000002
   19   1  11.603765927000000   2.318233935000000  24.753942374000001
   20   1  11.603765927000000   2.318233935000000  21.634942892000002
   21   2  15.204765997999999   2.318233935000000  23.194442633000001
   22   2  12.503765903000000   3.877233951000000  23.194442633000001
   23   1  14.304765902000000   3.877233951000000  24.753942374000001
   24   1  14.304765902000000   3.877233951000000  21.634942892000002
   25   2  12.503765903000000   0.758233951000000  23.194442633000001
   26   1  14.304765902000000   0.758233951000000  24.753942374000001
   27   1  14.304765902000000   0.758233951000000  21.634942892000002
   28   1  17.005765926999999   2.318233935000000  24.753942374000001
   29   1  17.005765926999999   2.318233935000000  21.634942892000002
   30   2  20.606765998000000   2.318233935000000  23.194442633000001
   31   2  17.905765902999999   3.877233951000000  23.194442633000001
   32   1  19.706765902000001   3.877233951000000  24.753942374000001
   33   1  19.706765902000001   3.877233951000000  21.634942892000002
   34   2  17.905765902999999   0.758233951000000  23.194442633000001
   35   1  19.706765902000001   0.758233951000000  24.753942374000001
   36   1  19.706765902000001   0.758233951000000  21.634942892000002
   37   1  22.407765927000000   2.318233935000000  24.753942374000001
   38   1  22.407765927000000   2.318233935000000  21.634942892000002
   39   2  26.008765998000001   2.318233935000000  23.194442633000001
   40   2  23.307765903000000   3.877233951000000  23.194442633000001
   41   1  25.108765901999998   3.877233951000000  24.753942374000001
   42   1  25.108765901999998   3.877233951000000  21.634942892000002
   43   2  23.307765903000000   0.758233951000000  23.194442633000001
   44   1  25.108765901999998   0.758233951000000  24.753942374000001
   45   1  25.108765901999998   0.758233951000000  21.634942892000002
   46   1   0.799765927000000   5.437233935000000  24.753942374000001
   47   1   0.799765927000000   5.437233935000000  21.634942892000002
   48   2   4.400765998000000   5.437233935000000  23.194442633000001
   49   2   1.699765903000000   6.996233951000000  23.194442633000001
   50   1   3.500765902000000   6.996233951000000  24.753942374000001
   51   1   3.500765902000000   6.996233951000000  21.634942892000002
   52   1   6.201765927000000   5.437233935000000  24.753942374000001
   53   1   6.201765927000000   5.437233935000000  21.634942892000002
   54   2   9.802765998000000   5.437233935000000  23.194442633000001
   55   2   7.101765903000000   6.996233951000000  23.194442633000001
   56   1   8.902765902000001   6.996233951000000  24.753942374000001
   57   1   8.902765902000001   6.996233951000000  21.634942892000002
   58   1  11.603765927000000   5.437233935000000  24.753942374000001
   59   1  11.603765927000000   5.437233935000000  21.634942892000002
   60   2  15.204765997999999   5.437233935000000  23.194442633000001
   61   2  12.503765903000000   6.996233951000000  23.194442633000001
   62   1  14.304765902000000   6.996233951000000  24.753942374000001
   63   1  14.304765902000000   6.996233951000000  21.634942892000002
   64   1  17.005765926999999   5.437233935000000  24.753942374000001
   65   1  17.005765926999999   5.437233935000000  21.634942892000002
   66   2  20.606765998000000   5.437233935000000  23.194442633000001
   67   2  17.905765902999999   6.996233951000000  23.194442633000001
   68   1  19.706765902000001   6.996233951000000  24.753942374000001
   69   1  19.706765902000001   6.996233951000000  21.634942892000002
   70   1  22.407765927000000   5.437233935000000  24.753942374000001
   71   1  22.407765927000000   5.437233935000000  21.634942892000002
   72   2  26.008765998000001   5.437233935000000  23.194442633000001
   73   2  23.307765903000000   6.996233951000000  23.194442633000001
   74   1  25.108765901999998   6.996233951000000  24.753942374000001
   75   1  25.108765901999998   6.996233951000000  21.634942892000002
   76   1   0.799765927000000   8.556233935000000  24.753942374000001
   77   1   0.799765927000000   8.556233935000000  21.634942892000002
   78   2   4.400765998000000   8.556233935000000  23.194442633000001
   79   2   1.699765903000000  10.115233951000000  23.194442633000001
   80   1   3.500765902000000  10.115233951000000  24.753942374000001
   81   1   3.500765902000000  10.115233951000000  21.634942892000002
   82   1   6.201765927000000   8.556233935000000  24.753942374000001
   83   1   6.201765927000000   8.556233935000000  21.634942892000002
   84   2   9.802765998000000   8.556233935000000  23.194442633000001
   85   2   7.101765903000000  10.115233951000000  23.194442633000001
   86   1   8.902765902000001  10.115233951000000  24.753942374000001
   87   1   8.902765902000001  10.115233951000000  21.634942892000002
   88   1  11.603765927000000   8.556233935000000  24.753942374000001
   89   1  11.603765927000000   8.556233935000000  21.634942892000002
   90   2  15.204765997999999   8.556233935000000  23.194442633000001
   91   2  12.503765903000000  10.115233951000000  23.194442633000001
   92   1  14.304765902000000  10.115233951000000  24.753942374000001
   93   1  14.304765902000000  10.115233951000000  21.634942892000002
   94   1  17.005765926999999   8.556233935000000  24.753942374000001
   95   1  17.005765926999999   8.556233935000000  21.634942892000002
   96   2  20.606765998000000   8.556233935000000  23.194442633000001
   97   2  17.905765902999999  10.115233951000000  23.194442633000001
   98   1  19.706765902000001  10.115233951000000  24.753942374000001
   99   1  19.706765902000001  10.115233951000000  21.634942892000002
  100   1  22.407765927000000   8.556233935000000  24.753942374000001
  101   1  22.407765927000000   8.556233935000000  21.634942892000002
  102   2  26.008765998000001   8.556233935000000  23.194442633000001
  103   2  23.307765903000000  10.115233951000000  23.194442633000001
  104   1  25.108765901999998  10.115233951000000  24.753942374000001
  105   1  25.108765901999998  10.115233951000000  21.634942892000002
  106   1   0.799765927000000  11.675233935000000  24.753942374000001
  107   1   0.799765927000000  11.675233935000000  21.634942892000002
  108   2   4.400765998000000  11.675233935000000  23.194442633000001
  109   2   1.699765903000000  13.234233951000000  23.194442633000001
  110   1   3.500765902000000  13.234233951000000  24.753942374000001
  111   1   3.500765902000000  13.234233951000000  21.634942892000002
  112   1   6.201765927000000  11.675233935000000  24.753942374000001
  113   1   6.201765927000000  11.675233935000000  21.634942892000002
  114   2   9.802765998000000  11.675233935000000  23.194442633000001
  115   2   7.101765903000000  13.234233951000000  23.194442633000001
  116   1   8.902765902000001  13.234233951000000  24.753942374000001
  117   1   8.902765902000001  13.234233951000000  21.634942892000002
  118   1  11.603765927000000  11.675233935000000  24.753942374000001
  119   1  11.603765927000000  11.675233935000000  21.634942892000002
  120   2  15.204765997999999  11.675233935000000  23.194442633000001
  121   2  12.503765903000000  13.234233951000000  23.194442633000001
  122   1  14.304765902000000  13.234233951000000  24.753942374000001
  123   1  14.304765902000000  13.234233951000000  21.634942892000002
  124   1  17.005765926999999  11.675233935000000  24.753942374000001
  125   1  17.005765926999999  11.675233935000000  21.634942892000002
  126   2  20.606765998000000  11.675233935000000  23.194442633000001
  127   2  17.905765902999999  13.234233951000000  23.194442633000001
  128   1  19.706765902000001  13.234233951000000  24.753942374000001
  129   1  19.706765902000001  13.234233951000000  21.634942892000002
  130   1  22.407765927000000  11.675233935000000  24.753942374000001
  131   1  22.407765927000000  11.675233935000000  21.634942892000002
  132   2  26.008765998000001  11.675233935000000  23.194442633000001
  133   2  23.307765903000000  13.234233951000000  23.194442633000001
  134   1  25.108765901999998  13.234233951000000  24.753942374000001
  135   1  25.108765901999998  13.234233951000000  21.634942892000002
  136   1   0.799765927000000  14.794233934999999  24.753942374000001
  137   1   0.799765927000000  14.794233934999999  21.634942892000002
  138   2   4.400765998000000  14.794233934999999  23.194442633000001
  139   2   1.699765903000000  16.353233951000000  23.194442633000001
  140   1   3.500765902000000  16.353233951000000  24.753942374000001
  141   1   3.500765902000000  16.353233951000000  21.634942892000002
  142   1   6.201765927000000  14.794233934999999  24.753942374000001
  143   1   6.201765927000000  14.794233934999999  21.634942892000002
  144   2   9.802765998000000  14.794233934999999  23.194442633000001
  145   2   7.101765903000000  16.353233951000000  23.194442633000001
  146   1   8.902765902000001  16.353233951000000  24.753942374000001
  147   1   8.902765902000001  16.353233951000000  21.634942892000002
  148   1  11.603765927000000  14.794233934999999  24.753942374000001
  149   1  11.603765927000000  14.794233934999999  21.634942892000002
  150   2  15.204765997999999  14.794233934999999  23.194442633000001
  151   2  12.503765903000000  16.353233951000000  23.194442633000001
  152   1  14.304765902000000  16.353233951000000  24.753942374000001
  153   1  14.304765902000000  16.353233951000000  21.634942892000002
  154   1  17.005765926999999  14.794233934999999  24.753942374000001
  155   1  17.005765926999999  14.794233934999999  21.634942892000002
  156   2  20.606765998000000  14.794233934999999  23.194442633000001
  157   2  17.905765902999999  16.353233951000000  23.194442633000001
  158   1  19.706765902000001  16.353233951000000  24.753942374000001
  159   1  19.706765902000001  16.353233951000000  21.634942892000002
  160   1  22.407765927000000  14.794233934999999  24.753942374000001
  161   1  22.407765927000000  14.794233934999999  21.634942892000002
  162   2  26.008765998000001  14.794233934999999  23.194442633000001
  163   2  23.307765903000000  16.353233951000000  23.194442633000001
  164   1  25.108765901999998  16.353233951000000  24.753942374000001
  165   1  25.108765901999998  16.353233951000000  21.634942892000002
  166   1   0.799765927000000  17.913233935000001  24.753942374000001
  167   1   0.799765927000000  17.913233935000001  21.634942892000002
  168   2   4.400765998000000  17.913233935000001  23.194442633000001
  169   2   1.699765903000000  19.472233951000000  23.194442633000001
  170   1   3.500765902000000  19.472233951000000  24.753942374000001
  171   1   3.500765902000000  19.472233951000000  21.634942892000002
  172   1   6.201765927000000  17.913233935000001  24.753942374000001
  173   1   6.201765927000000  17.913233935000001  21.634942892000002
  174   2   9.802765998000000  17.913233935000001  23.194442633000001
  175   2   7.101765903000000  19.472233951000000  23.194442633000001
  176   1   8.902765902000001  19.472233951000000  24.753942374000001
  177   1   8.902765902000001  19.472233951000000  21.634942892000002
  178   1  11.603765927000000  17.913233935000001  24.753942374000001
  179   1  11.603765927000000  17.913233935000001  21.634942892000002
  180   2  15.204765997999999  17.913233935000001  23.194442633000001
  181   2  12.503765903000000  19.472233951000000  23.194442633000001
  182   1  14.304765902000000  19.472233951000000  24.753942374000001
  183   1  14.304765902000000  19.472233951000000  21.634942892000002
  184   1  17.005765926999999  17.913233935000001  24.753942374000001
  185   1  17.005765926999999  17.913233935000001  21.634942892000002
  186   2  20.606765998000000  17.913233935000001  23.194442633000001
  187   2  17.905765902999999  19.472233951000000  23.194442633000001
  188   1  19.706765902000001  19.472233951000000  24.753942374000001
  189   1  19.706765902000001  19.472233951000000  21.634942892000002
  190   1  22.407765927000000  17.913233935000001  24.753942374000001
  191   1  22.407765927000000  17.913233935000001  21.634942892000002
  192   2  26.008765998000001  17.913233935000001  23.194442633000001
  193   2  23.307765903000000  19.472233951000000  23.194442633000001
  194   1  25.108765901999998  19.472233951000000  24.753942374000001
  195   1  25.108765901999998  19.472233951000000  21.634942892000002
  196   1   0.799765927000000  21.032233935000001  24.753942374000001
  197   1   0.799765927000000  21.032233935000001  21.634942892000002
  198   2   4.400765998000000  21.032233935000001  23.194442633000001
  199   2   1.699765903000000  22.591233951000000  23.194442633000001
  200   1   3.500765902000000  22.591233951000000  24.753942374000001
  201   1   3.500765902000000  22.591233951000000  21.634942892000002
  202   1   6.201765927000000  21.032233935000001  24.753942374000001
  203   1   6.201765927000000  21.032233935000001  21.634942892000002
  204   2   9.802765998000000  21.032233935000001  23.194442633000001
  205   2   7.101765903000000  22.591233951000000  23.194442633000001
  206   1   8.902765902000001  22.591233951000000  24.753942374000001
  207   1   8.902765902000001  22.591233951000000  21.634942892000002
  208   1  11.603765927000000  21.032233935000001  24.753942374000001
  209   1  11.603765927000000  21.032233935000001  21.634942892000002
  210   2  15.204765997999999  21.032233935000001  23.194442633000001
  211   2  12.503765903000000  22.591233951000000  23.194442633000001
  212   1  14.304765902000000  22.591233951000000  24.753942374000001
  213   1  14.304765902000000  22.591233951000000  21.634942892000002
  214   1  17.005765926999999  21.032233935000001  24.753942374000001
  215   1  17.005765926999999  21.032233935000001  21.634942892000002
  216   2  20.606765998000000  21.032233935000001  23.194442633000001
  217   2  17.905765902999999  22.591233951000000  23.194442633000001
  218   1  19.706765902000001  22.591233951000000  24.753942374000001
  219   1  19.706765902000001  22.591233951000000  21.634942892000002
  220   1  22.407765927000000  21.032233935000001  24.753942374000001
  221   1  22.407765927000000  21.032233935000001  21.634942892000002
  222   2  26.008765998000001  21.032233935000001  23.194442633000001
  223   2  23.307765903000000  22.591233951000000  23.194442633000001
  224   1  25.108765901999998  22.591233951000000  24.753942374000001
  225   1  25.108765901999998  22.591233951000000  21.634942892000002
  226   1   0.799765927000000  24.151233935000000  24.753942374000001
  227   1   0.799765927000000  24.151233935000000  21.634942892000002
  228   2   4.400765998000000  24.151233935000000  23.194442633000001
  229   1   6.201765927000000  24.151233935000000  24.753942374000001
  230   1   6.201765927000000  24.151233935000000  21.634942892000002
  231   2   9.802765998000000  24.151233935000000  23.194442633000001
  232   1  11.603765927000000  24.151233935000000  24.753942374000001
  233   1  11.603765927000000  24.151233935000000  21.634942892000002
  234   2  15.204765997999999  24.151233935000000  23.194442633000001
  235   1  17.005765926999999  24.151233935000000  24.753942374000001
  236   1  17.005765926999999  24.151233935000000  21.634942892000002
  237   2  20.606765998000000  24.151233935000000  23.194442633000001
  238   1  22.407765927000000  24.151233935000000  24.753942374000001
  239   1  22.407765927000000  24.151233935000000  21.634942892000002
  240   2  26.008765998000001  24.151233935000000  23.194442633000001

