50760
Atoms. Timestep: 1000000
H 69.40939183 64.68918289 61.5373189  # H43
F 67.5106063  59.96405016 62.31319984 # F14
F 68.71885722 58.65610751 59.66826648 # F14
F 67.38886485 62.01278428 63.02939197 # F14
C 67.24299969 60.71917256 63.42564856 # C14
F 66.01223362 60.5224741  63.97585684 # F14
F 70.81525471 58.08618743 59.92976247 # F14
F 69.5616925  58.71425722 63.55708809 # F15
F 69.45691438 61.12566938 64.17316937 # F16
C 68.37445262 60.40992946 64.50328809 # C16
C 68.84193699 58.99621953 64.70018884 # C15
H 66.92068343 65.51088479 62.36380577 # H42
C 69.61508675 57.68365696 59.37791848 # C14
F 67.78294406 58.15962908 64.79332905 # F15
C 69.90592838 57.71362512 57.78053498 # C13
O 73.01879689 60.7280702  58.77609776 # O41
O 71.73850644 62.46770378 59.14024468 # O40
F 66.5030003  57.37675806 72.90318605 # F11
F 72.61443708 59.16040252 62.13757532 # F14
O 73.8737558  62.57244599 58.61599229 # O41
F 76.04948098 59.76973691 61.29102104 # F15
F 76.5904468  62.23947416 61.8077003  # F15
F 74.64294118 63.68773891 62.47213401 # F13
C 75.60560209 59.90486291 62.58361329 # C15
F 74.54361859 60.77020966 62.66656842 # F15
C 77.26124664 61.9413393  62.99111008 # C15
C 78.10555386 59.43101051 63.25275612 # C14
C 76.87202605 60.4054     63.43101592 # C13
C 74.92252751 58.46206182 62.88040807 # C13
C 72.87707491 61.98034571 59.19742869 # C40
F 78.63978804 59.70258547 62.00513885 # F14
H 76.02881108 61.17934399 58.51327935 # H43
F 84.9352507  76.49654937 59.94157311 # F14
C 73.70874774 58.28445887 61.94587575 # C14
F 74.03003629 58.49128056 60.6639908  # F14
F 77.83693962 58.11383519 63.46387232 # F14
F 72.45956354 57.49149238 72.66488678 # F11
C 76.82334419 63.09758458 64.02449616 # C13
O 69.67617994 57.37123042 77.80367345 # O41
O 76.13890085 77.76758227 66.49015923 # O40
H 79.08417816 63.63315992 58.1376787  # H43
C 76.61084852 64.53704249 63.30882844 # C15
F 76.08127115 64.79171939 60.45424122 # F15
C 74.24253548 61.9203783  57.42366585 # C41
C 74.60499733 58.17312675 64.38970022 # C15
F 76.49317598 60.40020042 64.73857093 # F13
F 75.6362343  62.72224786 64.42887514 # F13
F 73.70619046 64.82572217 64.65598225 # F14
C 73.35510091 60.70495633 57.44845831 # C42
C 85.40181083 74.07053059 67.9289396  # C11
F 78.55279138 62.15306454 62.71189075 # F15
H 79.09217166 62.58706663 60.46377229 # H41
H 78.25428579 60.85019583 59.82275211 # H42
O 79.81647106 60.02210282 58.90308406 # O41
O 80.80873206 61.50016908 60.00363369 # O41
O 81.79920165 59.53118915 59.87614608 # O40
C 80.96041917 60.3534179  59.46110376 # C40
H 83.98984456 61.91041236 63.12177515 # H12
H 84.62233798 59.44793391 62.96011626 # H12
C 83.58280468 59.2063508  63.16848217 # C12
H 83.06056755 59.40964582 62.24542914 # H12
H 82.19846528 61.56924705 63.03299759 # H12
C 84.03836474 63.94813154 59.82754587 # C14
C 78.87026358 61.08261207 58.98580521 # C42
C 79.64982267 62.28866875 59.59547726 # C41
C 80.04409818 63.34217271 58.57433526 # C43
F 83.96686217 62.73039431 60.39510049 # F14
F 82.87949662 64.04535207 59.12833855 # F14
F 78.9565837  59.72405461 64.27494398 # F14
C 83.33355356 57.69341994 63.48680469 # C11
C 83.08275985 61.66108641 63.70754276 # C12
F 85.03421642 63.61917052 57.7786893  # F13
C 85.28630285 64.13174376 58.97042941 # C13
F 84.81097491 58.83613669 59.63070871 # F14
F 85.00215725 61.10511506 58.34765848 # F15
H 80.4709579  64.18467031 59.15755005 # H43
H 57.66579465 76.7081509  67.8240819  # H43
H 84.67572895 61.85396345 73.27862238 # H43
F 57.87417307 78.25931049 65.16417686 # F14
H 57.70908273 66.88892394 74.24341842 # H43
C 69.91945918 65.43705144 62.17481744 # C43
H 69.85220383 65.13020586 63.21264691 # H43
H 70.92364326 65.52674515 61.85309553 # H43
F 82.02504905 57.38176036 63.44642297 # F11
H 66.97553462 66.80240801 61.23009153 # H42
C 67.46491193 66.52047696 62.10868883 # C42
C 68.98759693 66.69099258 61.97109995 # C41
O 67.23235195 67.49428053 63.0707278  # O41
O 68.18484758 69.40955397 62.54142417 # O40
C 68.26007615 68.33536084 63.10253011 # C40
O 69.25709508 67.56135809 63.03871487 # O41
Na 67.46722515 71.26972158 61.16821982 # Na30
O 67.48577721 69.84607281 59.11743442 # O40
C 67.32610142 69.64346808 57.93887898 # C40
H 69.30600038 67.1785956  61.04121413 # H41
F 71.03248766 67.78159788 58.26003854 # F14
C 72.24897579 70.32884827 63.85134157 # C41
O 70.89689926 70.54133031 63.50973909 # O41
C 70.28830778 71.5801918  64.04208108 # C40
H 72.72487431 71.71241656 62.28477017 # H43
F 77.56839165 64.53827824 62.38495952 # F15
C 75.17598896 64.91053883 62.71042822 # C13
F 73.02174517 65.97531425 63.03358257 # F14
F 73.94796983 65.21880759 60.70093009 # F15
C 75.19048036 65.44838343 61.19728088 # C15
F 72.86968117 66.08864251 58.10275028 # F13
F 73.25620762 70.48364493 59.35342342 # F14
C 74.11761398 68.30174498 58.99429261 # C13
F 73.06860984 67.94804111 59.81097515 # F13
C 74.4405672  69.78350371 59.26827515 # C14
C 75.31389083 67.39517838 59.41239922 # C15
F 74.51830884 67.71333846 61.5922832  # F13
C 75.48681739 67.00028434 60.97268812 # C13
F 75.07818688 70.07087024 60.44557889 # F14
F 75.17606647 66.24579128 58.75020029 # F15
F 76.48324736 67.98063579 59.08686284 # F15
F 75.28047898 70.28263612 58.36046558 # F14
C 76.79889379 67.59027999 61.59674281 # C14
C 73.12091723 70.77300851 62.6206685  # C43
H 73.07315562 70.06258095 61.7952801  # H43
C 74.1722117  65.52327382 63.65789899 # C14
F 76.55562607 67.55528215 62.91382067 # F14
F 77.04448055 68.89953546 61.37320012 # F14
F 77.85419403 66.76236786 61.31834711 # F14
F 74.71133115 66.56752956 64.22368789 # F14
F 77.75504583 70.58941339 63.95768882 # F11
C 78.39767425 70.75713252 65.19807478 # C11
H 74.20062214 70.85673728 62.75255302 # H43
F 77.04408793 65.42308245 64.22958216 # F15
F 75.39204521 69.77894635 65.18062126 # F11
C 76.51338162 78.46432539 65.54391972 # C40
C 61.39925743 68.82252341 78.59130205 # C14
H 81.52133754 64.21995776 64.04016227 # H12
C 82.53449703 64.18979019 64.39986705 # C12
C 85.56562099 65.67159841 58.68962801 # C15
F 83.97957255 64.76849079 60.90568702 # F14
H 83.24957182 64.31084651 63.61333045 # H12
C 82.1141847  68.83761851 58.53876529 # C42
O 81.61086848 67.52786836 58.58857528 # O41
O 81.39469616 67.10482801 60.71522847 # O40
O 80.08224165 68.38243849 59.5217279  # O41
F 80.1535396  68.7612355  63.21327106 # F11
C 80.86384894 67.38019234 59.64138274 # C40
C 80.77675994 69.54807429 59.01714566 # C41
C 80.89441372 70.48633681 60.18315049 # C43
H 80.30836009 70.01689402 58.18100377 # H41
H 79.94170673 70.97955121 60.42272033 # H43
H 82.48987029 66.66824778 63.71647224 # H12
F 71.80226491 57.55280559 64.18297211 # F15
F 84.40710867 66.28993067 58.9222784  # F15
F 85.496271   73.9230656  63.92220108 # F11
H 82.65649752 69.06843962 63.62735837 # H12
H 81.04883834 66.21436635 64.67537746 # H12
C 80.54942984 69.6444395  64.16044998 # C11
H 78.29307356 61.24200278 58.06549413 # H42
H 82.30706501 69.21102188 57.50195327 # H42
C 82.04057452 69.2557528  64.52306721 # C12
C 82.09149654 66.64732745 64.72866538 # C12
O 66.61388967 65.08209576 77.7894975  # O40
H 62.46721602 72.60256591 58.08098125 # H43
C 63.05832627 73.38132472 58.57203134 # C43
H 62.41854539 74.23533368 58.79886739 # H43
C 63.40381906 77.79677213 59.76761359 # C40
F 58.24185315 75.97386368 59.32617159 # F14
H 62.51554678 75.03690334 61.39944208 # H43
C 61.71841889 75.78158945 61.58907612 # C43
H 62.25107753 76.28278299 62.36327729 # H43
C 61.51237985 76.49114127 60.22409734 # C41
O 62.8209824  76.51991209 59.6323617  # O41
H 60.89025236 75.90433861 59.53536445 # H41
H 60.81913695 75.2983125  61.98120815 # H43
C 61.18294408 77.9852515  60.25674675 # C42
H 58.81982643 65.37660734 75.4626625  # H42
O 68.17260284 58.76958403 78.23656032 # O41
H 63.31516333 72.91090992 59.50489341 # H43
C 65.03347768 73.00932557 62.22222254 # C40
F 85.29779797 76.9972675  68.3900638  # F11
O 63.92035746 73.55907275 62.55968075 # O41
C 57.5190413  76.81665569 60.05957047 # C14
F 58.24408312 77.20954368 61.14065635 # F14
O 65.25496021 72.90875778 57.53188034 # O41
C 85.73579514 68.14551483 73.75083708 # C14
H 71.97189541 73.87630883 58.17637504 # H42
O 65.34486631 71.81527826 62.25624261 # O40
O 69.38924066 72.28835809 63.53834343 # O40
C 69.6751498  72.56659987 58.30298372 # C40
H 75.47222603 57.90341827 73.61122483 # H43
H 67.0248302  76.3156663  63.16957161 # H43
O 66.66915947 72.57840463 59.24472861 # O40
C 64.21544449 73.87913517 57.68854617 # C41
F 77.26917613 72.32236609 57.39627833 # F11
C 66.37805946 73.17415145 58.22582155 # C40
H 64.74743029 74.91607865 59.46657528 # H42
C 65.00899945 74.89035698 58.44194798 # C42
O 66.32377337 74.4212464  58.19408235 # O41
C 68.73167073 77.75720234 58.09496151 # C15
F 68.43669075 75.83704036 60.45550633 # F14
F 70.88988648 76.50228117 59.69924367 # F15
C 68.08136003 77.14200858 60.45446446 # C14
C 70.61835492 77.82580592 60.08997215 # C15
F 70.40855045 75.98953019 62.26248927 # F15
C 70.91585488 77.15247617 62.69211997 # C15
F 67.79181813 76.80493183 57.86625017 # F15
O 69.98193424 73.7962206  57.96416986 # O41
O 65.90673973 73.88359103 62.40497975 # O41
F 69.78850758 77.17465664 57.47599262 # F15
H 64.80788786 75.80731736 57.96051527 # H42
F 75.76011151 57.37858344 62.55192929 # F13
F 68.16146675 77.53508074 61.71246963 # F14
H 65.2792811  76.58336921 62.68146073 # H43
H 65.72022952 76.67580372 64.20805605 # H43
C 65.95602176 76.11275317 63.38579973 # C43
H 66.32696016 74.34797743 64.34607809 # H41
C 65.65437056 74.63010034 63.59786121 # C41
O 71.01415715 71.91377464 65.02047473 # O41
C 69.06450271 77.96960502 59.64038009 # C13
F 66.81093381 77.3346789  60.05958905 # F14
F 69.88745833 77.60455054 63.47787448 # F15
C 58.05975977 65.36564052 76.29395522 # C42
O 69.84354118 72.11850904 59.45144204 # O40
C 72.20680632 76.90031461 63.63810803 # C13
C 72.9569051  75.66350136 63.08892531 # C15
F 72.84179139 75.60927208 61.76048338 # F15
F 75.57434058 73.06453901 59.63127    # F14
F 74.13084281 73.48522797 61.10581216 # F14
F 76.68685296 73.92804621 61.99002885 # F13
F 74.80559145 76.79709592 61.36572994 # F15
C 74.52719891 75.52461004 63.35181565 # C13
C 75.04398855 74.07892134 60.3104075  # C14
C 75.48818463 75.94879298 62.13303301 # C15
C 76.11301776 74.85657905 61.18418645 # C13
F 76.451103   76.70387619 62.65277995 # F15
F 76.84424051 76.80091362 60.01704128 # F15
C 77.14235377 75.4586928  60.18300346 # C15
F 76.98612891 74.92758032 58.94546018 # F15
F 74.41256531 74.97381938 59.46532873 # F14
F 72.31004092 74.51631472 63.55355196 # F15
F 74.58112465 73.10979945 63.53694228 # F14
F 84.45618482 73.59138624 74.22887202 # F15
F 78.39688953 73.01637213 60.40691253 # F14
F 74.84510048 76.41408913 64.3398859  # F13
C 78.68553344 75.3871836  60.54392378 # C13
H 73.0829867  71.89995426 65.12556317 # H42
F 72.46295516 78.22635344 61.16820572 # F13
F 78.92879163 72.02961876 65.14516535 # F11
O 66.20525933 62.93556718 78.23285048 # O41
H 72.41997286 70.76372588 66.03381646 # H42
C 71.12553828 78.23077613 61.53540531 # C13
C 74.90587282 74.26510792 64.1269593  # C14
C 72.27646572 71.23596223 65.11799645 # C42
F 73.1425773  77.89363064 63.45065076 # F13
H 65.76538182 67.58939372 78.56539723 # H43
F 80.73736243 70.84307511 63.51789856 # F11
F 85.75212868 75.78530551 75.73617127 # F14
F 78.75008878 78.06475272 61.68130882 # F13
F 78.90934711 75.2494228  61.89680969 # F13
F 83.49139344 71.64783998 58.36997259 # F14
C 79.81695871 77.92898928 60.81745654 # C13
H 83.94561581 72.10695456 62.94576707 # H10
C 84.34571231 74.16361638 63.30968373 # C11
C 84.14805745 72.7749126  57.94392336 # C14
C 79.29076021 74.01599149 60.04448712 # C14
F 79.38995858 73.84472994 58.65982071 # F14
F 83.66040023 77.12747526 58.20572695 # F14
F 79.01577399 76.83011734 58.73667473 # F15
C 79.5650087  76.54506881 59.9755137  # C15
F 80.49813348 73.72360961 60.67233625 # F14
F 81.1379817  76.54990359 62.44901332 # F14
F 80.72955215 75.96413804 59.64699735 # F15
F 83.16551584 73.69159412 58.06532351 # F14
F 81.43296154 78.28953223 58.58006049 # F13
H 82.59939252 73.19767945 62.73012016 # H10
C 83.4409455  72.93612991 63.40436158 # C10
C 81.10450953 77.76037683 61.76499684 # C14
F 82.18219514 77.72230422 60.98805841 # F14
C 84.94337531 77.13883161 58.73332993 # C14
H 82.79880983 75.63899043 63.55052964 # H12
C 83.76771064 75.40263111 64.00480927 # C12
C 84.65085778 76.6898038  63.93440293 # C11
H 82.9265233  72.61582667 64.25038826 # H10
H 83.45447218 75.15969298 65.01890449 # H12
F 85.12768172 73.22615061 58.76472209 # F14
F 68.6740852  57.52793853 71.8024468  # F11
C 83.98533096 77.86564725 64.65188307 # C12
O 66.27578249 68.92774621 57.49692338 # O41
F 84.66723891 77.16976278 62.65375196 # F11
C 82.89382729 78.58646936 71.66957451 # C12
H 68.12171345 60.87719322 65.39399302 # H16
O 85.65467746 63.41974353 75.28961041 # O41
C 69.77350271 58.6410252  65.91263051 # C13
F 68.06101493 59.06637723 67.58298363 # F14
C 69.31716834 59.29587869 67.30183351 # C14
F 69.50286791 60.68708444 67.32714046 # F14
F 70.11951685 58.81233822 68.29031986 # F14
F 68.07695756 62.62052117 68.16771486 # F15
F 70.03520923 62.188024   70.31615334 # F14
F 70.95136154 59.23528903 65.52533361 # F13
F 68.24769454 61.04482452 70.4540336  # F14
C 68.81466435 62.19613601 70.85722147 # C14
F 65.79544755 62.35575669 70.21096284 # F15
C 67.93363979 63.41881067 70.44369019 # C13
C 66.43625636 63.36969327 70.95149983 # C15
F 69.91715767 63.44929042 66.77951572 # F14
C 67.89768925 63.75641377 68.88694655 # C15
F 69.11068148 62.228833   72.21693522 # F14
H 85.70909143 69.93404729 78.3400775  # H41
H 57.8307014  68.17256267 75.42353022 # H43
F 72.17901018 57.61762731 67.08828801 # F13
F 73.84760281 59.23947114 64.87214091 # F15
F 73.04315061 58.26668581 69.55534951 # F11
F 73.92679418 59.94140836 67.6731645  # F11
F 77.17466527 63.96580593 66.14843505 # F14
C 74.25505567 62.08178301 67.97884147 # C12
C 73.60731006 60.87940504 68.58694794 # C11
H 74.13143976 61.94189068 66.88631476 # H12
H 75.26188815 62.08234971 68.22238367 # H12
H 75.18607362 60.12160818 69.64414912 # H12
C 77.81183265 63.24738792 65.20861633 # C14
F 72.25674589 60.93026197 68.59951529 # F11
F 75.78387835 58.15289159 65.09303401 # F15
C 74.21106396 60.39973053 69.89752088 # C12
C 73.52579684 63.43459324 68.35465364 # C11
F 73.1518254  63.51984843 69.64635893 # F11
F 72.41753825 63.60091953 67.58003164 # F11
C 73.58944599 59.15719545 70.52274937 # C11
H 74.35284918 61.17438115 70.63287526 # H12
C 73.7029991  68.08584177 57.43256757 # C15
H 71.77001385 60.11984923 70.98666636 # H12
C 72.48718391 59.4690848  71.50567035 # C12
C 78.29159244 62.35459471 70.84096649 # C20
F 77.34285466 62.6157706  69.99812667 # F20
F 74.43471585 58.44790676 71.28163591 # F11
H 72.88020366 60.05744167 72.36711953 # H12
H 81.3450312  69.96846698 61.08006977 # H43
F 78.15955433 62.04753692 65.69508432 # F14
C 83.18604513 60.22961617 64.26500721 # C11
C 82.80391524 62.78411057 64.86119677 # C11
H 79.00442868 59.2055851  68.66622148 # H12
C 81.37783117 77.74946938 78.56911015 # C40
F 83.71513969 57.3474077  64.70882381 # F11
F 83.858472   62.72799952 65.67059611 # F11
H 79.40505295 58.62852279 70.27271787 # H12
C 79.54476082 58.4389355  69.18885759 # C12
H 81.37865845 60.87391028 68.52544466 # H10
F 84.14404503 60.11016962 65.21839398 # F11
C 81.05403553 58.65450529 68.93318009 # C11
H 82.69606056 60.15334532 69.02189235 # H10
F 81.97353998 59.7950615  64.82211827 # F11
F 81.74039893 62.37107479 65.62044779 # F11
C 81.63326347 60.00231677 69.19534768 # C10
H 81.53508444 60.26599553 70.25253074 # H10
F 81.33758605 58.36468668 67.68330378 # F11
F 81.76712714 57.77770495 69.68775091 # F11
O 85.03695231 64.00917625 68.5208616  # O41
H 83.18770301 62.53431159 69.75109918 # H43
F 79.32204186 61.79573225 70.09062821 # F20
F 78.98767245 63.88223459 64.82451147 # F14
H 82.88552723 69.1818368  59.26330985 # H42
O 85.2353796  64.23516768 70.54030523 # O41
C 66.90117505 61.73030793 78.60717784 # C42
C 63.2745354  71.42857584 70.92449111 # C14
F 63.36185103 70.07480208 71.1615344  # F14
H 72.19183472 69.27986226 64.16899683 # H41
F 68.04836736 64.52454347 66.13080384 # F14
C 69.22938925 64.58847114 66.82504643 # C14
F 70.0074105  65.51003376 66.19650185 # F14
F 67.53122308 66.47436997 67.52806571 # F15
C 69.51394142 67.41720568 68.63457741 # C13
C 69.36133424 68.61170455 67.57790962 # C14
F 69.21189608 68.01060942 66.30179285 # F14
F 70.5660972  66.87125483 67.99882977 # F13
F 70.15070613 64.54301762 69.0173801  # F13
C 68.92914987 64.80465149 68.33312318 # C13
C 68.40490442 66.26031391 68.57957197 # C15
F 68.30045205 69.50260936 67.83884546 # F14
F 70.55261389 69.27863483 67.44600045 # F14
C 70.07689213 67.80310889 70.07744791 # C15
F 66.65367137 64.21705082 68.43773622 # F15
F 67.74292455 66.42850845 69.75078546 # F15
F 69.89854693 70.09795947 69.91911639 # F13
F 67.39400022 68.92002983 70.19576265 # F14
F 70.04079079 66.65902286 70.9003427  # F15
C 69.71497812 69.10339027 70.8807707  # C13
F 68.45751515 64.47741225 71.15366018 # F13
F 65.85631891 64.54259154 70.66425866 # F15
C 68.21692832 69.15656241 71.25506638 # C14
F 71.41199505 67.91642749 69.9489511  # F15
H 74.93210794 64.49832265 66.9702653  # H12
C 74.49741969 64.55549513 68.03039732 # C12
H 75.24067465 64.58202091 68.83853382 # H12
F 73.52023608 68.57699368 66.81338916 # F11
F 72.87898544 66.13154186 67.22258025 # F11
C 73.83676948 65.95678215 68.15189524 # C11
F 73.39358058 66.18190765 69.42517511 # F11
C 74.92809997 66.95235644 67.77790104 # C12
H 75.80773473 66.96349349 68.41680527 # H12
H 75.33839811 66.68855439 66.87668138 # H12
C 74.45147459 68.42835308 67.80294032 # C11
F 73.76104729 68.62859152 69.00112156 # F11
C 76.2219343  69.64062015 66.2727892  # C11
C 75.5251498  69.56989298 67.65232931 # C12
H 76.18697328 69.45686319 68.51991248 # H12
F 76.89678214 68.4735823  66.16519436 # F11
C 77.30324245 70.78395671 66.2976192  # C12
F 76.19765891 69.42949773 71.07446912 # F14
H 74.90938192 70.45461142 67.74214256 # H12
F 78.47335028 65.59784323 68.97384682 # F20
F 72.52180795 70.38411963 70.68700544 # F13
C 75.36142977 70.3170127  71.76438236 # C14
F 73.84568241 68.5008249  71.73743049 # F13
F 78.49419255 67.73220164 68.72026488 # F20
C 79.17726535 66.68902755 69.06409124 # C20
H 77.66653848 70.8768725  67.34652894 # H12
H 76.91037289 71.83181583 66.03372705 # H12
F 74.77169638 71.17512662 70.89447644 # F14
H 83.24239374 64.91541066 71.023485   # H42
C 82.77916056 63.32790121 69.13202296 # C43
H 82.51395359 62.90176932 68.15888761 # H43
H 81.83382508 63.57521581 69.76008842 # H43
F 80.08045953 66.49837295 68.15539996 # F20
C 84.06404372 64.99344933 70.27937671 # C42
C 83.77244406 64.44858055 68.9453518  # C41
H 82.43969506 70.13746958 65.01926436 # H12
F 83.90270945 65.45035118 65.8180151  # F11
C 79.5646507  69.74344433 65.41376605 # C12
C 82.6240087  65.34715624 65.38923172 # C11
S 79.83127539 66.86071294 70.73022196 # S20
F 81.76816894 65.13346804 66.44835208 # F11
C 82.23160694 68.02443075 65.47220145 # C11
F 83.44641377 68.08786855 66.0053697  # F11
H 79.23984731 68.70112296 65.61710967 # H12
F 81.33186762 68.15316696 66.50328501 # F11
N 80.43400525 68.31251348 70.54511001 # N20
S 81.87632378 68.79004967 70.92951573 # S20
F 81.99612912 69.77699408 68.59079022 # F20
C 82.74220169 68.97899005 69.30096173 # C20
F 82.79916665 67.82946077 68.59421219 # F20
H 80.20546144 70.10861475 66.24135768 # H12
H 83.32542171 65.21821269 68.33021367 # H41
O 78.65118661 66.87437822 71.57379611 # O20
F 83.95185949 69.53875968 69.31926002 # F20
O 82.55798796 67.82697161 71.76857522 # O20
H 84.60109704 70.17703809 65.87624791 # H12
H 80.47701961 71.28016224 69.22543536 # H41
H 84.47017713 66.03247926 70.33881395 # H42
O 81.88608737 70.11319172 71.36087418 # O20
H 60.41819928 76.68480469 69.15763545 # H41
F 63.86382447 71.55656661 69.66974863 # F14
F 61.95509159 71.67430648 70.89000111 # F14
H 58.44820866 75.33302074 68.41664279 # H43
O 85.67806424 59.11098156 70.22361552 # O40
O 61.38992635 77.44834629 64.83705883 # O20
F 62.33850734 77.17072832 67.57213331 # F20
C 59.50200787 77.19972631 68.95635853 # C41
H 59.06119921 76.22083656 67.02494156 # H43
S 62.5273608  78.21196857 65.24876317 # S20
C 63.1814046  77.23420705 66.60063789 # C20
F 63.81353975 73.97604924 70.24529988 # F15
C 58.64482919 76.3364617  67.9857729  # C43
C 85.18853608 62.11311474 75.35739595 # C41
H 63.65037472 75.3288557  63.70408839 # H42
H 76.40998396 62.47364423 57.36261365 # H43
F 63.42652841 76.02685703 66.2320535  # F20
H 63.73984052 73.89231048 64.64986    # H42
C 64.16860766 74.35328846 63.7364839  # C42
F 70.83663203 75.9829662  65.29387627 # F14
F 65.62147816 75.55978049 69.67012096 # F14
F 66.33401123 73.53846889 70.06504076 # F14
O 68.20111903 73.56519237 68.15670882 # O41
O 67.46918186 74.84582531 66.50005675 # O40
C 68.11540536 74.76275783 67.54857051 # C40
C 69.57012109 73.16177491 68.26868375 # C42
H 69.64648899 72.18726101 67.72469252 # H42
H 69.87874954 73.12490741 69.29792304 # H42
O 69.3416103  75.29398379 67.61241239 # O41
C 70.33129875 74.27197297 67.46066468 # C41
C 66.22265535 74.73806995 70.64698986 # C14
F 70.35177784 76.38601123 70.95288544 # F14
C 71.69441081 74.60181216 68.11283596 # C43
H 71.68103116 74.72762433 69.18125597 # H43
F 69.12411803 78.19887014 71.41154838 # F14
H 70.28732611 73.93107431 66.37194947 # H41
F 64.36900202 77.72323508 67.05675533 # F20
H 68.65682081 77.83165784 66.1972367  # H42
F 85.12353959 78.10863279 71.26698265 # F11
F 69.93438187 71.97167097 71.70509125 # F14
H 85.41959065 68.47362534 63.97669509 # H12
F 76.21063981 74.20003851 64.35896166 # F14
F 72.83224091 77.80140142 68.57351248 # F14
C 71.82450499 76.85912308 65.10399619 # C14
H 72.20678309 75.4279457  67.63105586 # H43
H 72.34948194 73.78695426 67.91246686 # H43
F 74.35279292 74.14750049 65.39864256 # F14
O 76.81528597 73.10459575 68.65215891 # O40
O 77.70823926 71.93949992 70.24876727 # O41
F 72.90077776 76.40288973 65.74574374 # F14
F 74.90226266 74.83009946 70.51789592 # F14
F 76.87016958 75.83033498 70.70566945 # F14
F 74.95047539 77.2361006  68.93751267 # F14
C 73.86935737 77.9874523  69.44509457 # C14
C 77.83132486 72.84360699 69.31561736 # C40
F 72.95504112 76.2923581  70.76531007 # F13
C 72.2510558  78.38078706 71.4861337  # C15
F 75.80148194 78.02090504 71.28703621 # F15
C 73.46205903 77.51219576 70.89795226 # C13
H 78.89330605 75.93747489 65.08646596 # H42
F 71.53412792 78.10989207 65.54692997 # F14
F 70.25465209 77.1571171  75.44471251 # F16
F 71.87852071 72.89278584 71.49553125 # F14
C 84.97403805 72.75257527 67.23825172 # C12
H 80.13921848 77.7139383  68.52795447 # H43
H 80.14024314 77.09985978 64.95352352 # H42
C 84.6790661  76.08152184 69.24458647 # C11
H 84.38332604 72.90599574 66.37494814 # H12
H 79.23112113 70.37403736 70.78895926 # H42
C 78.98634366 71.49164009 70.75498572 # C42
H 78.64381042 76.02364214 67.17303854 # H41
H 80.85637432 78.04202349 66.91755408 # H43
O 78.96809446 72.54760548 68.65469148 # O41
H 83.62974104 74.94144932 67.64936174 # H12
C 79.86985295 72.07565912 69.63096632 # C41
C 80.90536542 73.1148705  70.06125885 # C43
O 81.8129605  73.57367523 66.41767486 # O40
O 80.64842778 75.24445989 67.37608407 # O41
C 80.83598525 74.32210389 66.37710969 # C40
C 84.21035527 74.79473874 68.52017638 # C12
C 79.81703724 76.16262635 65.4634819  # C42
C 79.73219312 76.26320247 66.99877673 # C41
O 80.61623332 75.03649947 65.22313405 # O41
H 83.73955452 74.09758832 69.19619201 # H12
H 81.26963892 73.68233986 69.21864695 # H43
C 83.55255251 76.73806894 70.07475058 # C12
H 81.68823951 72.61779029 70.64190033 # H43
C 80.00535367 77.64294403 67.47098747 # C43
H 80.40466965 73.91934893 70.67806667 # H43
H 83.42224407 77.55940621 65.54217296 # H12
H 83.23670563 76.00415852 70.88663799 # H12
H 84.37441774 72.11262247 67.91353489 # H12
H 79.14991475 71.81236385 71.78517474 # H42
H 84.78466623 61.66799628 76.28527268 # H41
H 82.66307292 76.93846708 69.50980285 # H12
C 83.9327565  78.14921001 70.62836216 # C11
H 79.0526801  78.20304003 67.1653872  # H43
H 81.49416713 71.3553531  59.9426066  # H43
C 58.48189417 57.67662624 76.45194343 # C13
C 71.2865608  73.80560097 57.36815999 # C42
F 71.18603342 57.59383194 70.95640408 # F11
C 63.37353357 61.63501114 77.08828602 # C12
H 62.53651903 61.03562179 77.55584436 # H12
C 62.73893608 63.02549147 77.00305683 # C11
F 61.57692311 58.02798616 78.07824343 # F14
C 58.15449721 58.86916988 75.5177132  # C14
F 59.25983238 59.68290816 75.40085762 # F14
F 58.94714826 59.45746105 77.94268968 # F15
F 62.72449786 60.78998088 74.9161008  # F11
F 61.62142757 63.05237592 76.24320708 # F11
C 58.56442144 58.15048187 77.96798314 # C15
C 63.75098239 60.84746379 75.75495026 # C11
H 63.55557967 58.73299285 75.65024802 # H12
F 57.79474205 58.48792392 74.22798294 # F14
O 58.64397543 65.81162126 77.49276952 # O41
F 65.19419366 59.40641712 73.72230022 # F11
F 64.68013943 61.60450255 75.18517779 # F11
F 63.706633   63.78186095 76.42501728 # F11
F 72.11810478 57.55347402 57.81869604 # F15
C 67.93941039 78.59577971 66.35480782 # C42
H 57.62782136 64.29076685 76.45434355 # H42
C 69.47513068 58.60791845 78.13442112 # C40
C 66.01442448 57.73380437 75.14507659 # C12
C 64.35695678 59.45989552 75.9332865  # C12
H 68.77109753 58.38829836 74.97203158 # H12
H 70.1194662  59.6471145  72.52816618 # H12
C 68.31970098 58.23740159 74.00164702 # C12
C 65.5298169  59.20003048 75.01600292 # C11
F 66.6517541  61.83292074 72.75370562 # F16
F 66.52293473 60.04555921 75.39252283 # F11
H 68.06575224 59.23374877 73.68499851 # H12
C 66.17599947 63.10529447 72.48257308 # C16
C 70.44428494 58.67876072 72.85624284 # C12
H 70.84975636 58.93330858 73.78442019 # H12
H 66.3531984  57.4699393  76.17856129 # H12
C 69.30562745 57.69056177 73.01365194 # C11
O 69.51929658 61.04431297 76.0129306  # O40
C 75.75308212 61.54862843 57.54146969 # C43
H 60.37031385 78.25717005 59.53703542 # H42
H 64.66423455 59.37041855 76.97538884 # H12
C 70.4911793  61.74305697 75.66351436 # C40
O 70.69054685 63.01529003 76.07067194 # O41
H 65.09286006 63.05888681 72.48135957 # H16
C 85.57407409 78.55980092 58.81745887 # C13
H 64.19160311 61.68126678 77.80474766 # H12
H 67.2457883  61.22341688 77.73734918 # H42
O 71.08488926 61.62024755 74.481555   # O41
H 71.42030308 63.45778154 72.5470458  # H43
F 65.94432252 64.18033368 74.51440589 # F14
C 66.7322974  64.09308419 73.39965778 # C14
F 67.99270138 63.8191456  73.82063538 # F14
F 73.05787637 61.92650505 78.17173925 # F14
C 71.65059671 58.30594312 71.99412712 # C11
O 77.31568327 60.06344591 71.21517605 # O20
F 85.43948987 71.7990797  70.72416417 # F14
H 73.13477984 61.76388344 74.82326645 # H41
C 72.25930991 62.3419396  74.43957674 # C41
C 67.08475914 63.95124608 78.03228715 # C40
F 77.16244103 62.53390966 77.45363326 # F14
O 73.21398703 59.33709451 76.53291368 # O40
H 76.72398294 61.17137665 75.97649186 # H42
H 75.36201029 61.49425149 74.85975261 # H42
C 75.75791633 60.83798371 75.66365953 # C42
O 74.84173797 60.77575567 76.75262075 # O41
C 76.00068551 59.35993568 75.21291388 # C41
O 75.42038974 58.78121954 76.3726649  # O41
C 74.37822974 59.5318144  76.86190314 # C40
O 76.55581984 61.98171575 72.63187231 # O20
H 77.11463797 59.16571576 75.19831555 # H41
C 75.26621325 58.91561754 73.92344669 # C43
H 74.24058516 59.18207363 73.91211872 # H43
H 75.62684837 59.51540026 73.16506434 # H43
S 77.66245149 61.228945   72.0932511  # S20
H 85.54163696 71.25962849 64.74391305 # H12
C 71.95924931 63.41501923 75.52554665 # C42
H 72.61148738 63.25698957 76.40729525 # H42
C 72.21203108 62.827985   72.92979564 # C43
H 72.27282934 62.08062665 72.23767695 # H43
H 83.28109996 62.45264956 74.30115075 # H43
H 83.70743434 60.80179262 74.44037604 # H43
O 84.95441333 58.02476469 73.62613913 # O41
O 62.31348288 78.59049352 59.65629079 # O41
H 67.36068255 78.31946952 67.24965648 # H42
F 70.39211525 59.01342971 57.63300347 # F13
H 83.90072046 58.92504706 72.07284947 # H42
F 78.73263714 63.45814549 71.36408059 # F20
C 77.36076023 78.26545321 74.57787291 # C14
F 62.16433804 78.48881935 71.13052169 # F14
H 82.87767907 77.73708986 72.3961866  # H12
F 84.85771272 59.44618    77.51075779 # F11
C 84.76578654 69.58306361 78.41409115 # C41
H 69.04130214 62.15820298 78.59344074 # H41
H 82.97882773 58.66794618 73.55728666 # H42
C 83.71804139 58.26801817 72.91428379 # C42
N 78.73771302 61.00580309 73.24215153 # N20
F 80.56285397 58.47911736 75.3804105  # F20
O 80.89618074 59.76575895 72.60450501 # O20
O 78.931563   58.53290629 73.40945622 # O20
C 80.27665169 59.71937602 75.09137055 # C20
S 79.67404533 59.72073187 73.37806725 # S20
F 79.42589663 60.09796814 76.01878539 # F20
F 81.42359838 60.38304591 75.26200347 # F20
C 79.65081933 71.54949608 74.95406839 # C14
C 85.59442826 70.63076477 65.74047384 # C12
H 79.78423315 64.87998539 73.562025   # H42
H 81.44342412 65.47756455 73.21330684 # H42
C 80.68278046 65.31506341 73.99239187 # C42
H 61.18741204 78.40056581 61.21872808 # H42
C 60.32758164 71.12841164 78.19911749 # C15
C 58.70466409 70.86672565 78.26016186 # C13
H 83.18378379 78.35117428 63.97660149 # H12
C 57.88463928 71.44541905 77.0254174  # C14
F 62.44334289 70.65630264 77.76248797 # F13
F 58.3527474  71.1639412  75.76780846 # F14
F 62.99407159 66.70820629 74.97583341 # F14
F 61.21918456 66.86340886 76.1078273  # F14
F 61.15714049 67.35047331 73.91789591 # F14
F 59.87669875 69.09332446 75.88382129 # F15
C 61.11931525 69.65825736 76.06765199 # C15
F 61.02897807 70.8946715  75.53293709 # F15
C 62.28912238 68.80561108 75.35064917 # C13
C 61.87881567 67.39894718 75.08289913 # C14
F 61.74209994 69.84990522 73.31638369 # F15
C 62.89407833 69.39172409 73.97734766 # C15
F 63.42506683 68.73736007 76.13268812 # F13
F 63.6755875  71.19225077 75.45043465 # F13
F 63.3893762  68.39918925 73.170085   # F15
C 61.26314188 69.98859091 77.67909453 # C13
C 63.87177299 70.67676877 74.16744177 # C13
C 57.80848104 66.47239624 78.20946181 # C40
F 58.52734656 69.55171639 78.21737706 # F13
F 62.27572105 67.98503772 78.01160149 # F14
H 68.5933385  66.19841084 76.64275828 # H42
C 69.58944241 66.53038744 76.34912682 # C42
C 70.17682437 67.29556498 77.5264146  # C41