ITEM: TIMESTEP
10010
ITEM: NUMBER OF ATOMS
800
ITEM: BOX BOUNDS pp pp pp
-2.5944702560629246e-01 8.6474470256062332e+00
-7.0800209028248489e+00 2.5003987090282470e+02
-5.4400000000000004e+00 1.4560000000000000e+01
ITEM: ATOMS id vz vx vy 
3 2.73482 5.18381 -0.688955 
10 2.74855 10.034 3.86144 
4 -3.89721 -1.30424 -0.356725 
13 -2.37065 -5.74806 2.25145 
9 1.5379 4.54631 3.83875 
11 3.18274 8.92308 2.03679 
12 2.16621 4.3302 2.35936 
15 -6.52594 -9.22576 1.93882 
16 -4.43404 -12.183 -0.0959427 
1 2.96643 -0.0333214 5.87781 
2 -0.660767 0.449134 -0.469105 
19 -0.68847 4.58631 1.57469 
5 -0.507178 -1.79966 -1.61161 
20 4.76614 5.64104 4.09914 
6 -2.12686 -5.28876 -6.1685 
23 1.92335 -4.70427 1.0553 
24 1.52608 -0.927376 -4.57519 
26 -4.19163 1.51013 -1.42953 
27 -2.21651 -0.221464 9.18214 
29 4.85299 -2.79434 -3.91149 
28 5.78628 0.44447 -5.16405 
30 -1.44092 -1.72793 -7.79314 
31 -2.26839 -3.88609 0.931543 
32 0.737291 -2.93503 5.1929 
25 0.506322 3.91328 4.89809 
18 9.17991 1.10277 -7.41387 
35 -1.39322 -1.17281 3.36881 
21 -5.01502 -3.2732 0.443669 
36 1.11212 -5.77341 -0.718915 
22 0.115289 -4.08226 5.29291 
39 1.82285 -1.13518 -5.22199 
17 8.26194 3.43389 -0.0863546 
40 0.595549 -0.230815 -3.99756 
45 6.66358 0.460129 1.00927 
46 1.02647 -3.63115 -1.08618 
41 2.94553 3.63464 1.39896 
7 1.07869 -3.00051 -10.1275 
14 3.61629 -0.893216 4.94493 
8 -1.1803 6.5708 -1.33166 
42 -3.18991 1.28309 4.35742 
43 0.48682 3.29666 -1.35524 
44 2.9286 -1.09319 4.83897 
47 10.7572 -0.793063 3.43522 
48 -3.44724 2.09201 5.67667 
34 -0.495189 -5.71761 -0.490688 
37 0.0827396 1.43392 -0.562985 
38 -0.873907 -2.08337 2.31252 
33 -1.8554 8.54706 -1.84847 
58 -7.70059 -5.99178 -2.85209 
51 2.2183 6.69046 2.41298 
61 -4.32827 -13.1868 3.09156 
52 -4.81451 7.42909 -1.11117 
62 7.3574 -3.03192 -6.81058 
55 -3.42722 -1.44364 4.933 
57 1.01436 1.63422 -5.33109 
56 2.20576 -4.89103 5.61985 
50 -9.60346 -0.992505 4.21122 
59 -0.689157 -8.61572 -0.372446 
53 3.5862 -2.01816 -0.956789 
60 -1.34591 3.97212 -2.48465 
54 -3.64359 0.0563844 -7.35029 
63 4.41304 2.61636 4.90406 
49 -3.0935 -7.0173 0.437024 
64 -3.71785 -4.60884 0.914018 
67 8.33541 7.05756 3.38797 
74 15.0111 1.36088 3.73021 
68 -0.556369 -8.03373 -0.994764 
77 -8.00942 1.21317 -0.267174 
71 -9.12828 -6.08609 -3.87316 
78 1.42084 0.94798 -4.81658 
72 1.04462 3.61118 3.04264 
73 7.6584 3.65591 -1.94886 
75 -0.282077 -0.336081 -1.20882 
66 0.720032 -4.6109 -3.14255 
69 -0.739767 2.33627 10.9378 
76 -0.24148 -6.77645 -2.97935 
79 -2.28159 2.91708 4.61832 
70 -3.24049 3.1275 -8.96288 
80 4.38134 5.15737 1.68516 
65 0.885528 -0.713197 -1.81815 
83 -1.13401 -7.79761 -0.201799 
84 -3.60271 2.51311 -1.24295 
87 3.07567 -0.0524505 1.91146 
88 -5.25206 -10.7303 3.20996 
90 2.93074 -5.13343 0.0316356 
91 1.38962 4.36237 -1.00484 
93 -1.12047 -0.0555105 -10.6818 
92 -1.54335 1.34648 2.59223 
94 7.06599 -2.24246 3.89706 
95 -0.228262 -7.70226 -4.06519 
89 -2.39471 0.547587 -3.87841 
96 -1.77296 -4.30942 -1.60233 
82 9.55289 -3.84111 -2.1211 
99 -6.55318 2.82029 6.36091 
85 4.05068 -4.73041 -1.1438 
100 -0.807698 1.70691 10.3097 
103 -2.16355 -3.69607 -1.30582 
86 -9.10241 6.39508 7.21269 
81 -0.615335 -1.51823 -6.81912 
104 1.46228 5.32035 4.7354 
115 3.58576 -2.40201 -4.28758 
116 -0.251515 -11.8932 -2.84065 
119 -1.37541 -6.58499 -0.749902 
120 4.16759 0.501024 2.76964 
122 1.3377 -3.50287 3.968 
125 3.76591 -10.2373 -8.12732 
126 -0.172734 2.75223 8.60965 
121 -3.31765 1.82284 -3.59789 
123 -6.80378 -3.91715 -0.726367 
114 -2.07645 4.87155 10.278 
124 5.83294 -1.03756 -2.52725 
117 -0.531963 8.91591 -1.25998 
127 -5.70004 3.81092 9.21141 
118 -1.97784 -4.08575 5.29286 
113 -0.870323 -2.39536 -5.26059 
128 4.88425 1.02277 -1.2541 
131 1.716 -2.5607 8.56405 
138 1.50796 2.62291 -2.68095 
132 -7.86898 -2.24727 1.7756 
141 3.74102 -4.56805 -1.52754 
135 -4.75541 -2.46332 -6.96878 
142 -4.33395 0.704327 0.784592 
136 0.954641 -0.353152 6.65263 
137 -3.28688 5.18301 -12.6709 
139 3.50165 -1.68197 -5.42749 
130 -0.42952 -3.33054 -2.12903 
133 -3.95881 -1.23987 2.63522 
140 -5.64948 -3.41871 -11.9911 
143 -2.53916 -0.265093 2.74534 
134 5.69274 -8.5284 12.288 
129 -7.34008 -4.16452 -5.17307 
144 4.05742 -5.01738 -5.01127 
147 -3.42436 -2.84383 2.19483 
154 -2.93373 -1.89254 5.64103 
148 -1.96053 1.72005 0.641547 
157 -3.97554 -1.98077 -1.48861 
151 -1.77134 -10.2761 1.4402 
158 -5.66877 3.89759 -3.68193 
152 2.04983 11.7217 -4.35674 
153 -2.1979 -3.89286 -2.49238 
106 -6.67483 -0.348962 2.94171 
107 -1.38201 3.72782 5.1361 
108 -0.354906 -8.39518 8.07125 
109 -4.96669 2.88526 5.20118 
110 -2.65637 -2.37632 -2.17125 
111 4.41426 6.30173 -3.23387 
105 2.55377 -1.46813 1.28623 
112 -0.542145 -5.93899 -1.49105 
98 -2.20862 5.84267 4.83421 
101 -3.88139 5.64688 3.13385 
102 -2.12391 -3.7207 -4.55611 
97 4.96813 -1.60598 -0.2615 
155 -0.704907 -2.18177 -4.99408 
156 1.05278 -5.92514 8.6421 
159 -1.45455 6.12619 0.184439 
160 1.96803 8.86708 -5.21993 
146 0.997778 6.00859 -6.74101 
163 -0.449157 3.17444 -6.59068 
149 -1.75723 0.493744 2.23553 
164 -5.69263 -1.31594 1.68412 
150 1.96502 -0.547667 -2.08561 
167 -9.27039 -6.36962 -12.3021 
168 1.84357 0.758484 5.18914 
145 -1.8075 -0.599268 -2.61859 
170 -4.48307 0.346492 -0.285859 
171 -5.67702 6.8039 0.687031 
172 -0.866745 -10.1298 -1.25541 
173 4.89744 -2.59254 -2.8831 
174 0.432575 3.41078 3.60474 
175 -1.53003 6.02834 1.15075 
169 0.532038 0.642431 1.91817 
176 -2.07792 -4.61788 1.06443 
162 4.95226 -1.39734 -2.26478 
179 7.67625 -2.39873 -6.91624 
165 5.82361 -0.877577 -0.999789 
180 1.31994 -3.44921 -4.55159 
166 6.07732 0.023305 -6.42625 
183 1.52703 -1.39856 -4.30348 
161 4.90018 -6.07064 2.74607 
184 -0.570636 -3.85881 -0.936974 
186 1.56542 -1.42656 -5.14832 
189 -0.372462 2.2257 -4.55454 
188 -0.465655 12.1216 1.23327 
190 -1.66631 0.33025 -6.41293 
185 0.406388 -1.45106 -5.2731 
192 -5.96919 1.69026 -1.16535 
187 -4.28232 6.16239 -5.72446 
178 7.16499 -2.90341 -2.03385 
181 7.69911 7.37916 -0.883288 
191 5.46481 1.35233 1.49859 
182 -8.03218 6.5688 0.0535204 
177 -1.10271 -1.13061 -0.519056 
195 -8.71984 1.42624 -1.60483 
202 -2.6468 -2.92673 9.82681 
205 2.65103 8.77483 0.167905 
196 7.07915 5.2191 3.76524 
199 -6.21992 -3.28675 -0.888122 
206 3.69431 -5.60857 5.50905 
200 -4.73796 -1.38217 3.39174 
201 -1.99953 -13.045 -1.66477 
224 5.75804 -0.221531 6.19479 
227 0.310581 -2.7953 -0.156376 
210 -0.575157 -9.5741 3.06267 
228 -4.91369 7.35374 3.36234 
231 -3.58671 -4.34692 7.01286 
214 9.29151 0.608084 2.80528 
209 3.6319 1.1528 6.33054 
232 7.2724 -1.04988 0.22401 
235 0.320434 4.49204 2.96967 
234 5.06434 -0.0538932 -5.02024 
237 -5.45728 4.39687 -4.50298 
236 0.896532 9.25428 0.700562 
239 -0.640675 -2.27457 -5.34903 
238 1.34403 -0.262422 1.00048 
240 -3.01694 -4.36571 -3.39813 
233 -0.221606 0.364922 1.60469 
226 -4.74257 -0.866525 0.0996254 
243 -4.37096 2.37271 -3.92714 
229 2.3317 3.21848 -2.28523 
244 -0.544973 2.57276 4.68475 
230 -9.06075 -13.5073 -8.58062 
247 0.577006 -8.24778 -8.50111 
225 -9.28449 1.55844 -3.02402 
248 -7.5135 -0.768717 4.67464 
250 -2.07332 -1.78875 -0.885093 
251 -0.367401 2.70602 -4.22765 
253 3.31901 4.30167 6.20646 
252 1.68531 -0.0281186 -2.80022 
254 7.31263 1.57418 -3.57714 
255 1.66795 -4.38083 5.0302 
249 -6.76323 -0.191247 6.504 
256 4.55622 4.4687 -7.21268 
194 -4.54848 -3.14143 -1.14916 
203 -2.99266 -1.92571 -0.667883 
204 -7.26017 -4.81569 11.0183 
197 -5.38259 -2.03436 -0.290567 
198 -2.11876 -0.528877 -1.70416 
207 7.45325 2.10709 -6.92298 
193 0.75318 1.8536 -8.8441 
208 -5.85142 -6.30751 0.484518 
211 1.23651 -5.10813 -2.81959 
218 0.597758 7.98493 5.20116 
212 -1.86262 2.09049 4.41812 
221 8.01213 4.75147 4.51625 
215 5.79627 5.12631 3.69823 
222 -1.83711 4.59962 10.1328 
216 -6.23713 1.90528 0.548379 
217 12.4298 -1.57828 0.392677 
219 2.74705 0.709816 -4.53881 
220 3.84472 1.34396 -9.22749 
223 -4.08716 -4.09526 -4.05332 
213 -7.94345 -1.40402 -1.12693 
242 -4.40509 0.550174 -3.43694 
245 1.56462 -4.78061 1.89475 
246 -0.979018 -1.88694 4.65025 
241 -6.66155 7.91779 5.18324 
259 3.77331 -1.0613 2.15259 
266 -1.09567 -2.57239 -1.24587 
260 -5.59756 -1.76785 6.37145 
269 -3.88155 5.88965 -5.8904 
263 -1.73409 0.764512 -5.00438 
270 -0.121517 -1.44209 0.184225 
264 0.133198 -5.35742 0.429892 
265 -4.46809 1.77002 -5.58647 
258 -2.01641 -4.66966 5.38911 
267 1.76318 9.53163 -4.35381 
261 -10.8855 -1.176 -0.35029 
268 5.82216 0.793358 0.707449 
262 -1.69477 5.84841 -0.327766 
271 5.98842 -3.28552 1.89851 
257 1.75411 6.9115 -8.53869 
272 -0.628515 3.97596 -4.71033 
275 -4.43292 -4.45383 -0.573112 
282 -5.64086 0.0476775 -1.76259 
276 -1.59553 1.20464 3.31956 
285 -1.52523 -0.0816857 3.32714 
279 -3.81376 -5.25551 6.85039 
286 0.288711 0.679408 4.88265 
280 0.453539 5.08166 7.00424 
281 7.01826 1.82063 -2.19233 
283 -1.93811 0.472714 -1.67716 
274 -0.0720601 1.68243 0.357895 
284 1.9066 -7.59666 0.556208 
287 3.82021 -1.78166 2.07141 
288 -6.85467 -2.52622 2.00647 
273 3.13498 2.10991 15.0297 
291 -0.91001 1.9735 -0.523369 
277 -0.247487 0.73688 -1.88525 
292 -2.77494 1.88026 -2.03291 
278 -0.544316 3.72357 -3.48373 
295 -4.58043 -9.87047 -1.82456 
296 -6.71946 -2.89483 6.84101 
299 -1.49701 -2.45667 3.76804 
298 4.60148 2.71107 -3.23609 
300 7.6104 -1.723 -7.76826 
301 -1.61706 -6.16591 4.66343 
303 -3.35152 3.33952 -4.45393 
302 4.9918 12.9445 1.84228 
297 -0.372052 2.88285 -5.65153 
304 11.2426 -0.349322 6.44703 
290 -0.818337 -3.18614 -4.56268 
307 3.64738 5.9498 -0.788218 
293 -0.837436 -2.72871 -0.634365 
308 -3.5784 -2.80766 -2.92235 
294 2.96531 -4.91058 -3.35516 
311 -1.18834 -3.5268 2.25585 
289 1.36977 -1.22378 11.5156 
312 -1.75417 3.13675 -1.99792 
315 -3.58633 7.72857 -6.04284 
314 -1.44357 -6.32826 -5.16074 
316 -5.80968 -7.88344 -5.90018 
317 2.31611 2.80392 7.82543 
318 -7.54631 4.41592 -2.09815 
319 -3.7576 -8.52094 -2.56453 
313 0.237569 2.13254 -0.78457 
320 3.81964 -2.48587 1.79283 
306 6.72117 2.25089 -4.50122 
309 0.900375 1.55733 1.89395 
310 -0.580816 6.74224 -6.33845 
305 -2.97805 -2.92975 -2.60222 
328 -4.05038 -0.37901 -0.264994 
323 -7.1699 2.90111 4.61021 
330 -7.95612 2.11085 5.50589 
324 -11.9276 5.7826 4.51504 
333 -2.07966 -7.92226 12.2182 
327 3.69638 -0.0201257 -3.91712 
334 -0.651664 -0.808574 1.94831 
329 -1.0494 2.04506 7.8509 
322 -8.33904 -0.781678 -8.34274 
331 3.56407 4.92363 0.405767 
325 1.90876 0.774362 7.21715 
332 6.26736 -1.76315 -3.76677 
326 4.9295 -1.09001 -8.40245 
335 -5.92236 -2.11322 4.45373 
321 3.79167 -0.943729 -7.37708 
336 -0.652237 -3.53822 -4.92497 
339 -2.87141 0.804484 2.42273 
346 1.2883 8.55561 1.17963 
340 3.06154 1.55572 -6.76491 
349 0.0773918 3.75795 1.9543 
343 2.86808 3.1271 -2.90226 
350 2.74822 2.89668 2.50909 
344 -6.70004 0.462853 -3.11994 
345 10.1959 -1.56175 -2.12798 
347 11.6649 -0.499356 -1.79099 
338 6.80395 -0.577271 3.38204 
348 7.34111 -5.17119 1.09492 
341 1.05238 5.34492 1.18067 
351 2.34382 1.41956 -4.25532 
342 3.36113 5.62691 1.62745 
352 0.50991 -0.0448916 0.0357009 
337 3.26306 1.15992 -4.35236 
379 6.64788 -4.39094 -0.727003 
380 0.906433 -0.830292 -12.0225 
383 1.52899 1.48151 -1.1349 
384 2.49049 -1.97579 2.07381 
370 1.52866 -0.816945 8.64841 
387 0.695877 3.22151 1.31294 
373 1.95504 9.62404 1.26776 
388 2.87144 -2.97533 -2.2875 
374 -0.270853 2.25067 2.27367 
391 -5.00318 1.78452 7.0257 
369 7.57873 0.301678 -4.53484 
392 -6.56862 -3.47142 2.73917 
394 -1.19245 -2.86495 1.66967 
397 1.83704 -5.39023 -10.5604 
398 4.18108 0.168069 -0.698583 
393 -1.68983 8.10988 2.96312 
395 -2.75864 1.90135 1.264 
386 -3.05909 -2.59605 -4.33532 
389 3.03531 3.39907 -4.8424 
396 0.397629 4.8948 1.52219 
390 -2.06797 1.56476 11.1259 
399 -2.18022 5.73902 -0.86044 
385 3.69504 -5.29753 3.05781 
400 1.6908 1.94434 -9.60194 
355 11.7961 0.652332 -0.293617 
356 -2.15043 -5.60429 -4.50185 
359 2.02209 -3.94361 -1.10197 
360 0.758914 -1.5857 3.71048 
363 3.82009 -3.01966 0.468941 
362 -2.07174 -5.34403 2.00208 
365 -2.54792 3.62741 0.940023 
364 1.28465 8.87313 -13.2269 
366 -0.272025 5.43148 -2.8559 
367 3.75138 7.09765 -9.09999 
361 1.54126 -4.77431 0.820704 
368 6.0219 3.42496 -4.17435 
354 8.51512 -9.26289 0.890427 
371 -5.50087 3.71698 0.327355 
357 5.81107 -3.44586 7.34787 
372 11.8205 -3.98113 -9.14651 
358 -2.00673 1.65284 -9.14584 
375 8.01821 4.40337 4.40889 
353 -0.0605623 6.30462 -2.72763 
376 -3.28307 2.69849 0.579726 
378 10.8525 1.15819 -6.89253 
381 8.20739 4.26486 11.1985 
382 -2.05598 -2.91751 1.87897 
377 1.27497 5.78568 -4.17594 
403 12.1104 -3.8211 -9.13519 
410 2.04829 -1.95331 1.54236 
404 -5.6783 -0.866249 1.01255 
413 4.56333 1.37133 -2.59595 
407 -0.860925 4.47345 -0.840653 
414 -7.82768 -0.972472 3.67089 
408 5.83056 -2.87139 -7.27172 
409 -3.19391 8.74783 -0.535888 
411 6.10314 2.33907 1.39219 
402 -3.2071 -1.04198 5.84547 
412 0.962622 2.85488 -5.06346 
405 -2.13841 3.08404 -5.07987 
415 4.73718 -6.90714 4.66822 
406 -3.28907 -4.30038 4.33329 
416 -3.14489 9.26115 -2.50624 
401 -3.02243 1.36498 -8.63043 
419 -0.0476802 6.21101 0.605849 
420 -3.51699 -7.32525 -6.05946 
423 -1.42173 -0.69973 1.17038 
424 -0.049679 -1.19301 5.12941 
426 3.86465 -3.60707 -5.27313 
427 -8.3272 -0.0973873 6.42127 
429 3.63307 2.69487 -5.33179 
428 -2.85298 -2.0181 2.46023 
430 1.80979 -1.56268 -7.99816 
431 -1.8244 7.36005 -1.26058 
425 5.01157 -4.39609 -5.15545 
432 1.8701 2.52706 2.1073 
418 6.97125 4.66014 6.91719 
435 3.11871 0.9102 1.92382 
421 -0.0669778 -2.04026 9.70395 
436 1.41862 3.98136 2.86304 
439 -1.7658 3.84396 1.38237 
422 -4.70044 0.683807 -1.14201 
417 2.63645 -8.03002 -4.36487 
440 -3.43826 1.40008 -5.49915 
442 -7.97168 -0.238869 3.23966 
443 -3.07127 -7.68058 -5.03222 
445 -5.08806 5.09785 -3.11545 
444 3.36355 7.23983 1.43028 
446 0.47091 -9.70637 -1.32033 
447 5.94604 -3.78519 -2.39556 
441 2.56615 1.63136 4.49007 
448 -5.87007 1.93601 5.00094 
434 -11.5655 -1.50417 2.97474 
451 -0.280926 0.665087 7.12166 
437 -4.13267 -7.42881 9.17798 
452 -5.48043 2.58404 -8.72529 
438 11.1327 0.241081 -3.23867 
455 -2.66714 1.28742 -3.67617 
433 4.47461 0.454986 2.96652 
456 -3.80406 -5.90091 11.2886 
458 -3.94112 1.22624 2.12797 
461 -4.46306 2.74279 -6.18222 
462 -3.17387 -0.115276 -7.80187 
457 -2.75131 1.25642 -0.753631 
450 4.37901 0.696883 -8.17635 
459 -2.01321 -2.0864 -1.99658 
453 3.25399 -6.04744 -0.0393555 
460 -1.75034 -0.939424 -1.72601 
454 4.87235 7.62976 -2.25432 
463 -1.75511 -1.72635 -0.00835537 
464 -3.29564 3.45518 -4.35488 
449 4.13861 5.05784 -3.09324 
467 -6.17794 -7.61863 -2.02712 
474 10.848 10.3303 2.32222 
468 2.28599 -7.23431 -0.253164 
477 -7.87257 -4.53974 1.87814 
471 5.22351 5.72038 -6.85595 
478 0.0581467 3.71383 -3.18243 
472 -3.03697 6.41598 0.841737 
473 -0.507636 6.52018 -2.93148 
475 -1.3496 -6.30848 -3.04346 
466 0.864381 0.00740978 0.841715 
476 0.839236 -2.17148 -1.38531 
469 4.45514 -1.25912 -6.98489 
479 3.92754 0.134981 -2.52853 
470 -3.45093 -14.4679 -3.71759 
480 -0.389859 -6.45179 4.60869 
465 3.44608 -6.11115 6.50228 
483 -3.00698 10.1429 8.70775 
484 8.01565 -1.63711 2.50991 
487 5.27227 6.6285 8.54074 
488 10.3347 -0.396 1.91814 
490 5.27225 5.88896 3.48451 
491 0.881847 -6.83397 -6.13426 
493 -3.57858 -1.01038 2.4211 
492 -2.1955 3.35831 1.61834 
494 6.92607 4.20702 -5.52604 
495 4.97958 2.86647 0.396843 
482 -0.348145 5.26823 5.17308 
499 5.07505 10.895 0.41837 
500 -2.28541 -1.59173 -4.70256 
485 -1.65996 9.92746 2.32712 
503 -2.74662 0.414186 -4.4624 
486 -0.370781 -1.91409 -2.06826 
481 2.87769 -0.142584 -2.44715 
489 -5.68549 4.49444 5.04262 
496 -1.03717 -1.38727 -5.5516 
504 -5.86555 -0.835137 1.31026 
509 1.59062 0.396889 -2.73669 
506 -13.4602 2.19153 -0.214697 
507 -7.68026 4.56266 -1.17913 
508 -8.49148 3.45716 3.32432 
510 -4.27247 -0.429875 -2.21057 
511 2.79891 -1.38274 11.3049 
505 -3.72125 2.98794 -2.4655 
512 0.61896 -2.85872 -0.0471246 
498 5.92188 0.456303 -3.43481 
515 -1.86837 -4.92489 -1.71934 
501 0.322017 -5.46735 7.29725 
516 -1.37583 4.73989 -4.76534 
502 -5.22698 4.38899 -1.06607 
519 0.00467292 -3.25328 -5.88046 
497 4.00183 4.31282 -5.91131 
520 -6.95454 -7.87914 -7.74034 
522 5.7188 -4.32571 -3.60919 
525 -8.81622 2.16931 5.49369 
526 -1.67055 2.08952 -8.39879 
521 -4.20548 0.75939 -0.71301 
523 -3.13017 -6.52326 -7.70285 
514 -10.5043 -0.900435 3.03548 
524 4.77248 4.38528 1.87217 
517 -4.35167 -1.33859 -6.08824 
527 1.36605 -0.627049 7.98039 
518 -5.53485 4.90985 -5.88235 
528 0.300073 0.0105058 -3.10822 
513 -2.50438 -2.65611 -8.20995 
531 11.5854 10.8275 -7.46339 
538 -2.04573 3.12574 7.99882 
532 -0.0106421 -3.72376 -8.71228 
541 -3.83988 -1.81224 -5.10866 
535 -3.43418 3.37197 -5.33137 
542 -0.758668 -4.80592 0.600611 
536 3.82412 7.41917 -0.274427 
537 -5.85191 5.28308 5.19761 
530 5.52703 -0.171279 2.61827 
539 -4.26822 3.39454 -8.56071 
533 -4.66839 5.5141 -1.97957 
540 -8.4776 4.74593 -0.656048 
534 -0.0435934 -1.6447 3.66493 
543 6.69474 -0.696698 4.87354 
529 0.864848 -3.0362 -6.69856 
544 -1.98994 0.929129 -4.35817 
547 -1.40966 6.35092 -1.18576 
548 3.60855 -6.10904 -3.51475 
551 -5.85174 6.05297 -2.99917 
552 1.00817 6.95914 -4.93506 
554 -4.1124 4.31346 -0.220224 
555 -5.43625 1.81674 0.793937 
556 8.69843 1.65198 2.65789 
557 3.18535 0.107483 -2.9897 
559 -0.966096 -5.32712 16.3936 
558 -3.52057 -2.4833 -1.23764 
560 7.77499 -5.57848 0.0807268 
553 1.47993 -2.7076 2.68789 
546 -3.58806 -4.81731 1.29876 
563 2.05316 4.52778 -0.877703 
549 -1.604 0.107782 -7.71174 
564 1.08201 2.03308 3.5724 
550 1.44592 3.87509 -2.30967 
567 -5.50299 1.0849 4.91168 
545 -7.12509 -2.95588 1.29547 
568 -4.73105 2.98364 -2.54163 
571 0.885359 0.637975 2.15545 
570 -7.69523 -10.0023 -2.08043 
572 -6.75327 -3.56479 -1.89086 
573 3.18196 3.06472 -3.03393 
574 4.8022 -5.24476 -1.44506 
575 3.70625 5.79819 1.72568 
576 1.28203 1.70005 -1.57096 
569 1.24562 -4.74575 -3.13205 
579 0.930616 1.50148 1.53744 
562 3.07075 1.07909 2.52496 
580 2.62638 7.88004 -3.73982 
565 -1.60987 2.87963 3.51577 
583 -0.125137 3.00301 -4.32043 
566 5.82622 2.58496 1.48545 
584 6.44126 2.56193 4.248 
561 -5.91811 2.36624 -5.67203 
586 3.51873 1.91462 1.5601 
589 -9.70762 -3.10039 5.50255 
590 -6.67288 -2.19171 -6.25698 
585 -5.51518 4.15652 0.883392 
587 4.81449 4.98247 1.81203 
592 1.9267 6.61768 1.38576 
578 1.6239 1.01746 1.90103 
588 -4.20335 -2.11214 0.820851 
581 -0.852778 -3.48818 -6.47928 
591 -6.83008 5.92645 -3.58265 
582 11.6451 -7.39117 9.32978 
577 -7.20343 -2.22449 -1.6339 
595 -6.65415 -1.71453 -4.45458 
602 0.857102 1.43102 -0.221656 
596 1.14827 7.00679 0.556124 
605 -5.07886 0.603925 -3.77984 
599 -3.20743 6.03678 -2.27844 
606 4.12432 -11.7215 0.294085 
601 0.820715 2.27229 -5.52351 
600 2.15658 -5.86649 8.16187 
594 -6.47506 -4.07864 11.7337 
603 -0.0956666 -3.27446 6.68829 
597 2.44445 1.42248 10.8932 
604 0.71061 -2.46561 9.70605 
598 0.742813 -1.41492 4.67152 
607 1.09078 -0.58705 -5.90955 
593 -3.56383 -4.85663 3.95082 
608 -7.95126 1.65707 3.17668 
611 7.67089 3.50488 -0.675425 
618 2.37937 -2.36039 1.79129 
612 -0.907194 -4.99032 2.50333 
621 0.85155 -2.99776 3.41588 
615 3.31043 -9.10978 -7.35306 
622 0.375565 -2.52595 5.22697 
616 -2.7834 4.84686 0.898006 
617 -4.57815 3.57858 8.14204 
619 1.12945 -4.86539 -4.60605 
620 -5.47893 -0.702061 -5.95837 
623 0.710594 2.87873 9.5451 
624 1.18268 -1.40299 6.78079 
610 0.963422 3.25565 -9.99343 
627 7.44631 4.05541 -4.83976 
613 -3.08826 -1.40009 0.479758 
628 0.66089 1.69346 7.57123 
614 2.2711 -1.60669 -5.31949 
631 6.56919 0.509152 1.34068 
609 -0.879522 -0.583783 -3.59617 
632 0.881615 -1.74714 2.22796 
635 0.278067 -0.454789 -2.3686 
634 0.0606641 -1.50322 1.00385 
636 -5.8162 1.12525 -6.20019 
637 -1.58792 -0.159054 -4.22433 
639 -5.25161 4.64767 -0.445598 
638 2.69621 -0.433339 4.52431 
633 1.39871 -3.44461 8.27738 
640 -4.55021 2.0459 3.30076 
643 8.17268 -4.76099 6.12191 
626 -3.49532 5.56441 -3.26302 
629 0.182921 5.94093 -4.76786 
644 2.86114 -8.03463 -2.7139 
630 2.91518 -0.283292 3.65454 
647 1.07907 -0.4919 -8.61259 
648 -7.71919 0.792651 0.484196 
625 -1.01166 -2.13954 2.06074 
650 3.12387 5.94801 2.20587 
653 10.7792 -6.20732 3.45634 
654 -3.18072 -0.583319 2.65867 
649 -2.06311 -4.94196 -0.58725 
642 1.47999 -5.04201 -4.05454 
651 5.09865 -7.36791 7.55771 
645 4.36007 -1.12974 -3.60787 
652 5.5141 -2.87446 5.57103 
646 1.59295 -1.40861 -0.0407167 
655 11.4826 -2.16508 4.55368 
641 5.56026 -6.3713 4.00318 
656 -1.06049 2.60486 -4.17616 
659 -0.696859 8.82622 -2.97495 
666 -3.06302 1.78452 -2.62268 
660 -2.15112 -3.6406 1.15996 
669 5.92379 2.90974 0.754216 
663 7.33123 -2.94097 -0.936105 
670 5.97466 10.3871 -5.19671 
664 6.60256 -4.34267 -0.629381 
665 -7.4316 -5.73122 7.3593 
658 1.43717 -2.94365 4.6188 
667 -0.314109 -4.56519 -4.52503 
661 -1.47284 0.0798006 -4.30282 
668 6.11768 1.27527 -4.26009 
662 -1.52548 3.41879 -0.574395 
671 6.47433 1.5109 -10.3758 
657 -1.48865 0.636747 0.283085 
672 -0.084508 -16.372 4.53864 
675 0.96744 -2.69267 -4.00234 
676 -8.78565 5.66405 -4.1299 
685 0.522384 -3.89832 -4.11254 
679 -6.16505 2.94844 2.07048 
686 0.457976 5.93737 -3.8567 
680 -3.14472 0.668633 -4.0649 
682 -1.22598 1.40987 -5.8775 
683 -2.79101 5.32888 -3.96452 
684 -0.929824 -7.4093 3.88676 
687 0.924238 -4.67757 2.84241 
681 -7.91873 1.16423 0.573158 
688 -7.13069 2.2203 -7.96811 
674 -12.7581 -2.3252 1.08132 
691 5.97395 -1.52444 -2.40187 
677 -6.75152 3.21556 4.78615 
692 -4.75756 -3.97358 -3.02291 
678 -1.34643 -1.9513 3.40281 
695 -3.05636 -2.41595 0.378411 
673 3.41542 -2.27612 2.78271 
696 -0.808537 -3.6891 1.89114 
698 -2.62354 5.99288 5.1513 
699 -8.32391 -0.288185 3.60686 
701 -6.59405 -2.068 3.12572 
700 -2.44014 -0.360241 -3.87628 
703 -2.08202 -6.78046 -5.81393 
702 -0.199692 -0.776001 4.11772 
704 -3.58824 6.58644 -2.62086 
697 3.0774 10.791 6.43999 
715 -1.95901 5.92073 4.14389 
717 0.0579246 0.55433 6.29809 
718 0.309382 -2.74482 1.22803 
706 -1.00237 -1.93077 4.56719 
716 0.27702 0.315515 -1.66234 
709 2.27843 -2.44354 2.21784 
719 -2.16042 -4.43394 -1.5769 
710 0.0120541 0.0386934 -1.66124 
720 -2.04466 -3.2308 3.53863 
705 7.24892 3.33996 -1.01544 
723 4.22705 -1.08647 5.21849 
730 -6.78049 2.80276 3.57467 
724 0.381739 -0.465612 -4.11187 
733 -6.5136 -2.58681 -3.45976 
727 2.60053 -4.50343 -0.837047 
734 0.26982 2.53221 -0.6195 
728 -6.97816 3.91101 2.84512 
729 -5.77827 -8.82389 8.99667 
722 -2.29397 4.24283 2.80652 
731 1.91385 0.303325 8.4876 
725 3.44697 6.16436 -1.81481 
732 0.95896 -1.89104 -2.04864 
726 4.84748 -1.48831 10.2932 
735 6.8805 2.09628 4.8301 
721 5.46652 7.1683 0.958962 
736 -1.72531 6.27459 2.39758 
739 7.11735 -4.02179 -2.53753 
746 2.44055 -3.77614 2.39127 
740 4.42818 -1.7725 5.43216 
749 1.53072 7.67073 -2.96149 
743 0.0707965 -0.0532036 -3.09492 
750 14.4953 0.0307683 1.72543 
744 6.73335 9.67981 0.0926718 
745 6.18829 3.31584 1.14898 
747 -3.82015 -6.09202 0.193811 
748 -0.292445 -4.57841 6.90642 
751 0.324073 13.7164 0.0681031 
752 9.71445 1.16442 0.457122 
690 0.732787 1.97652 -0.080904 
707 -4.02629 1.83569 0.0125593 
693 -0.646086 -0.555365 0.785176 
708 -1.61235 2.09393 1.05792 
694 1.619 3.91958 -0.91513 
711 -3.42856 4.88116 1.45305 
712 0.885032 0.110297 7.04091 
689 7.55499 2.27949 -0.482819 
714 -4.38225 -9.25452 1.87668 
713 -1.0508 1.56879 8.41396 
755 5.34754 1.15181 -5.49303 
738 -4.03752 -0.227845 7.07538 
756 3.18086 -0.546244 -0.551952 
741 -4.60021 -3.4129 6.76993 
759 -3.95712 -0.542646 0.112305 
742 5.47799 -6.32311 4.76558 
760 1.73344 -1.49547 -3.66379 
737 2.63823 6.56423 5.15477 
762 3.83522 -2.01279 2.68656 
763 4.56515 -5.22816 -5.77962 
765 6.175 1.59979 3.59463 
764 3.93626 -3.08787 9.74093 
766 -4.71966 -4.95416 -3.45167 
767 0.885261 5.02396 -5.77706 
761 -0.994908 -2.60616 8.50097 
768 4.64898 7.55918 -7.45176 
771 4.56743 -3.91791 3.89204 
754 1.10024 5.35037 -2.33476 
772 -1.54441 -0.736291 9.52017 
757 9.70357 1.18037 3.82935 
775 2.29549 5.69994 -1.58357 
758 5.32802 1.28188 2.37489 
776 -1.9827 -0.910107 -8.38798 
753 4.29995 4.16209 -2.60257 
778 -3.44097 5.481 -0.225942 
779 -0.271687 -1.36232 -0.466765 
781 1.20699 -2.81994 -3.3754 
780 -0.133859 2.3713 -1.20381 
782 -0.890253 2.86422 0.967451 
783 3.32518 -1.03275 -3.87975 
777 -0.825292 2.1547 4.3329 
784 -1.57908 0.326553 2.50405 
770 4.155 0.338324 -0.162201 
773 5.43365 0.661121 -1.91605 
774 -3.82343 1.34384 -1.16905 
769 -3.67703 -5.798 4.30588 
787 2.08347 -6.72503 7.32517 
794 -1.67475 -7.74991 -0.610853 
788 7.37331 -4.22356 -1.82296 
797 -3.25428 1.73795 13.9565 
791 1.42924 -3.05549 5.17505 
798 -8.11644 0.727298 -2.83295 
792 -4.70129 0.345014 4.86916 
793 5.22488 1.42122 -2.10147 
786 -0.325921 -4.2149 3.14843 
795 -1.53184 4.65646 11.7643 
789 -1.46601 -2.50366 -7.326 
796 -4.0839 -4.2688 -2.10657 
790 -0.226073 1.1081 2.85125 
799 6.06699 2.36608 4.63619 
785 0.519333 0.146528 1.13051 
800 3.7277 -0.885958 0.831267 
