LAMMPS data file. msi2lmp v3.9.9 / 05 Nov 2018 / CGCMM for MoS2

   9600 atoms
  0 bonds
  0 angles
 0 dihedrals
   0 impropers

   2 atom types
   0 bond types
   0 angle types
   0 dihedral types
   0 improper types

    -1.050500000   539.149500000 xlo xhi
     0.778499871    50.682499871 ylo yhi
   -23.245333354    26.754666646 zlo zhi

Masses

   1  32.064000 # s
   2  95.940000 # Mo

Atoms # full

      1      1   1  0.000000     0.000000000     3.117999863     3.314166387   0   0   0 # s
      2      1   1  0.000000     0.000000000     3.117999863     0.195166906   0   0   0 # s
      3      1   2  0.000000     3.601000071     3.117999863     1.754666646   0   0   0 # Mo
      4      1   2  0.000000     0.899999976     4.676999878     1.754666646   0   0   0 # Mo
      5      1   1  0.000000     2.700999975     4.676999878     3.314166387   0   0   0 # s
      6      1   1  0.000000     2.700999975     4.676999878     0.195166906   0   0   0 # s
      7      2   2  0.000000     0.899999976     1.557999878     1.754666646   0   0   0 # Mo
      8      2   1  0.000000     2.700999975     1.557999878     3.314166387   0   0   0 # s
      9      2   1  0.000000     2.700999975     1.557999878     0.195166906   0   0   0 # s
     10      3   1  0.000000     5.402000000     3.117999863     3.314166387   0   0   0 # s
     11      3   1  0.000000     5.402000000     3.117999863     0.195166906   0   0   0 # s
     12      3   2  0.000000     9.003000071     3.117999863     1.754666646   0   0   0 # Mo
     13      3   2  0.000000     6.301999976     4.676999878     1.754666646   0   0   0 # Mo
     14      3   1  0.000000     8.102999975     4.676999878     3.314166387   0   0   0 # s
     15      3   1  0.000000     8.102999975     4.676999878     0.195166906   0   0   0 # s
     16      4   2  0.000000     6.301999976     1.557999878     1.754666646   0   0   0 # Mo
     17      4   1  0.000000     8.102999975     1.557999878     3.314166387   0   0   0 # s
     18      4   1  0.000000     8.102999975     1.557999878     0.195166906   0   0   0 # s
     19      5   1  0.000000    10.804000000     3.117999863     3.314166387   0   0   0 # s
     20      5   1  0.000000    10.804000000     3.117999863     0.195166906   0   0   0 # s
     21      5   2  0.000000    14.405000071     3.117999863     1.754666646   0   0   0 # Mo
     22      5   2  0.000000    11.703999976     4.676999878     1.754666646   0   0   0 # Mo
     23      5   1  0.000000    13.504999975     4.676999878     3.314166387   0   0   0 # s
     24      5   1  0.000000    13.504999975     4.676999878     0.195166906   0   0   0 # s
     25      6   2  0.000000    11.703999976     1.557999878     1.754666646   0   0   0 # Mo
     26      6   1  0.000000    13.504999975     1.557999878     3.314166387   0   0   0 # s
     27      6   1  0.000000    13.504999975     1.557999878     0.195166906   0   0   0 # s
     28      7   1  0.000000    16.206000000     3.117999863     3.314166387   0   0   0 # s
     29      7   1  0.000000    16.206000000     3.117999863     0.195166906   0   0   0 # s
     30      7   2  0.000000    19.807000071     3.117999863     1.754666646   0   0   0 # Mo
     31      7   2  0.000000    17.105999976     4.676999878     1.754666646   0   0   0 # Mo
     32      7   1  0.000000    18.906999975     4.676999878     3.314166387   0   0   0 # s
     33      7   1  0.000000    18.906999975     4.676999878     0.195166906   0   0   0 # s
     34      8   2  0.000000    17.105999976     1.557999878     1.754666646   0   0   0 # Mo
     35      8   1  0.000000    18.906999975     1.557999878     3.314166387   0   0   0 # s
     36      8   1  0.000000    18.906999975     1.557999878     0.195166906   0   0   0 # s
     37      9   1  0.000000    21.608000000     3.117999863     3.314166387   0   0   0 # s
     38      9   1  0.000000    21.608000000     3.117999863     0.195166906   0   0   0 # s
     39      9   2  0.000000    25.209000071     3.117999863     1.754666646   0   0   0 # Mo
     40      9   2  0.000000    22.507999976     4.676999878     1.754666646   0   0   0 # Mo
     41      9   1  0.000000    24.308999975     4.676999878     3.314166387   0   0   0 # s
     42      9   1  0.000000    24.308999975     4.676999878     0.195166906   0   0   0 # s
     43     10   2  0.000000    22.507999976     1.557999878     1.754666646   0   0   0 # Mo
     44     10   1  0.000000    24.308999975     1.557999878     3.314166387   0   0   0 # s
     45     10   1  0.000000    24.308999975     1.557999878     0.195166906   0   0   0 # s
     46     11   1  0.000000    27.010000000     3.117999863     3.314166387   0   0   0 # s
     47     11   1  0.000000    27.010000000     3.117999863     0.195166906   0   0   0 # s
     48     11   2  0.000000    30.611000071     3.117999863     1.754666646   0   0   0 # Mo
     49     11   2  0.000000    27.909999976     4.676999878     1.754666646   0   0   0 # Mo
     50     11   1  0.000000    29.710999975     4.676999878     3.314166387   0   0   0 # s
     51     11   1  0.000000    29.710999975     4.676999878     0.195166906   0   0   0 # s
     52     12   2  0.000000    27.909999976     1.557999878     1.754666646   0   0   0 # Mo
     53     12   1  0.000000    29.710999975     1.557999878     3.314166387   0   0   0 # s
     54     12   1  0.000000    29.710999975     1.557999878     0.195166906   0   0   0 # s
     55     13   1  0.000000    32.412000000     3.117999863     3.314166387   0   0   0 # s
     56     13   1  0.000000    32.412000000     3.117999863     0.195166906   0   0   0 # s
     57     13   2  0.000000    36.013000071     3.117999863     1.754666646   0   0   0 # Mo
     58     13   2  0.000000    33.311999976     4.676999878     1.754666646   0   0   0 # Mo
     59     13   1  0.000000    35.112999975     4.676999878     3.314166387   0   0   0 # s
     60     13   1  0.000000    35.112999975     4.676999878     0.195166906   0   0   0 # s
     61     14   2  0.000000    33.311999976     1.557999878     1.754666646   0   0   0 # Mo
     62     14   1  0.000000    35.112999975     1.557999878     3.314166387   0   0   0 # s
     63     14   1  0.000000    35.112999975     1.557999878     0.195166906   0   0   0 # s
     64     15   1  0.000000    37.814000000     3.117999863     3.314166387   0   0   0 # s
     65     15   1  0.000000    37.814000000     3.117999863     0.195166906   0   0   0 # s
     66     15   2  0.000000    41.415000071     3.117999863     1.754666646   0   0   0 # Mo
     67     15   2  0.000000    38.713999976     4.676999878     1.754666646   0   0   0 # Mo
     68     15   1  0.000000    40.514999975     4.676999878     3.314166387   0   0   0 # s
     69     15   1  0.000000    40.514999975     4.676999878     0.195166906   0   0   0 # s
     70     16   2  0.000000    38.713999976     1.557999878     1.754666646   0   0   0 # Mo
     71     16   1  0.000000    40.514999975     1.557999878     3.314166387   0   0   0 # s
     72     16   1  0.000000    40.514999975     1.557999878     0.195166906   0   0   0 # s
     73     17   1  0.000000    43.216000000     3.117999863     3.314166387   0   0   0 # s
     74     17   1  0.000000    43.216000000     3.117999863     0.195166906   0   0   0 # s
     75     17   2  0.000000    46.817000071     3.117999863     1.754666646   0   0   0 # Mo
     76     17   2  0.000000    44.115999976     4.676999878     1.754666646   0   0   0 # Mo
     77     17   1  0.000000    45.916999975     4.676999878     3.314166387   0   0   0 # s
     78     17   1  0.000000    45.916999975     4.676999878     0.195166906   0   0   0 # s
     79     18   2  0.000000    44.115999976     1.557999878     1.754666646   0   0   0 # Mo
     80     18   1  0.000000    45.916999975     1.557999878     3.314166387   0   0   0 # s
     81     18   1  0.000000    45.916999975     1.557999878     0.195166906   0   0   0 # s
     82     19   1  0.000000    48.618000000     3.117999863     3.314166387   0   0   0 # s
     83     19   1  0.000000    48.618000000     3.117999863     0.195166906   0   0   0 # s
     84     19   2  0.000000    52.219000071     3.117999863     1.754666646   0   0   0 # Mo
     85     19   2  0.000000    49.517999976     4.676999878     1.754666646   0   0   0 # Mo
     86     19   1  0.000000    51.318999975     4.676999878     3.314166387   0   0   0 # s
     87     19   1  0.000000    51.318999975     4.676999878     0.195166906   0   0   0 # s
     88     20   2  0.000000    49.517999976     1.557999878     1.754666646   0   0   0 # Mo
     89     20   1  0.000000    51.318999975     1.557999878     3.314166387   0   0   0 # s
     90     20   1  0.000000    51.318999975     1.557999878     0.195166906   0   0   0 # s
     91     21   1  0.000000    54.020000000     3.117999863     3.314166387   0   0   0 # s
     92     21   1  0.000000    54.020000000     3.117999863     0.195166906   0   0   0 # s
     93     21   2  0.000000    57.621000071     3.117999863     1.754666646   0   0   0 # Mo
     94     21   2  0.000000    54.919999976     4.676999878     1.754666646   0   0   0 # Mo
     95     21   1  0.000000    56.720999975     4.676999878     3.314166387   0   0   0 # s
     96     21   1  0.000000    56.720999975     4.676999878     0.195166906   0   0   0 # s
     97     22   2  0.000000    54.919999976     1.557999878     1.754666646   0   0   0 # Mo
     98     22   1  0.000000    56.720999975     1.557999878     3.314166387   0   0   0 # s
     99     22   1  0.000000    56.720999975     1.557999878     0.195166906   0   0   0 # s
    100     23   1  0.000000    59.422000000     3.117999863     3.314166387   0   0   0 # s
    101     23   1  0.000000    59.422000000     3.117999863     0.195166906   0   0   0 # s
    102     23   2  0.000000    63.023000071     3.117999863     1.754666646   0   0   0 # Mo
    103     23   2  0.000000    60.321999976     4.676999878     1.754666646   0   0   0 # Mo
    104     23   1  0.000000    62.122999975     4.676999878     3.314166387   0   0   0 # s
    105     23   1  0.000000    62.122999975     4.676999878     0.195166906   0   0   0 # s
    106     24   2  0.000000    60.321999976     1.557999878     1.754666646   0   0   0 # Mo
    107     24   1  0.000000    62.122999975     1.557999878     3.314166387   0   0   0 # s
    108     24   1  0.000000    62.122999975     1.557999878     0.195166906   0   0   0 # s
    109     25   1  0.000000    64.824000000     3.117999863     3.314166387   0   0   0 # s
    110     25   1  0.000000    64.824000000     3.117999863     0.195166906   0   0   0 # s
    111     25   2  0.000000    68.425000071     3.117999863     1.754666646   0   0   0 # Mo
    112     25   2  0.000000    65.723999976     4.676999878     1.754666646   0   0   0 # Mo
    113     25   1  0.000000    67.524999975     4.676999878     3.314166387   0   0   0 # s
    114     25   1  0.000000    67.524999975     4.676999878     0.195166906   0   0   0 # s
    115     26   2  0.000000    65.723999976     1.557999878     1.754666646   0   0   0 # Mo
    116     26   1  0.000000    67.524999975     1.557999878     3.314166387   0   0   0 # s
    117     26   1  0.000000    67.524999975     1.557999878     0.195166906   0   0   0 # s
    118     27   1  0.000000    70.226000000     3.117999863     3.314166387   0   0   0 # s
    119     27   1  0.000000    70.226000000     3.117999863     0.195166906   0   0   0 # s
    120     27   2  0.000000    73.827000071     3.117999863     1.754666646   0   0   0 # Mo
    121     27   2  0.000000    71.125999976     4.676999878     1.754666646   0   0   0 # Mo
    122     27   1  0.000000    72.926999975     4.676999878     3.314166387   0   0   0 # s
    123     27   1  0.000000    72.926999975     4.676999878     0.195166906   0   0   0 # s
    124     28   2  0.000000    71.125999976     1.557999878     1.754666646   0   0   0 # Mo
    125     28   1  0.000000    72.926999975     1.557999878     3.314166387   0   0   0 # s
    126     28   1  0.000000    72.926999975     1.557999878     0.195166906   0   0   0 # s
    127     29   1  0.000000    75.628000000     3.117999863     3.314166387   0   0   0 # s
    128     29   1  0.000000    75.628000000     3.117999863     0.195166906   0   0   0 # s
    129     29   2  0.000000    79.229000071     3.117999863     1.754666646   0   0   0 # Mo
    130     29   2  0.000000    76.527999976     4.676999878     1.754666646   0   0   0 # Mo
    131     29   1  0.000000    78.328999975     4.676999878     3.314166387   0   0   0 # s
    132     29   1  0.000000    78.328999975     4.676999878     0.195166906   0   0   0 # s
    133     30   2  0.000000    76.527999976     1.557999878     1.754666646   0   0   0 # Mo
    134     30   1  0.000000    78.328999975     1.557999878     3.314166387   0   0   0 # s
    135     30   1  0.000000    78.328999975     1.557999878     0.195166906   0   0   0 # s
    136     31   1  0.000000    81.030000000     3.117999863     3.314166387   0   0   0 # s
    137     31   1  0.000000    81.030000000     3.117999863     0.195166906   0   0   0 # s
    138     31   2  0.000000    84.631000071     3.117999863     1.754666646   0   0   0 # Mo
    139     31   2  0.000000    81.929999976     4.676999878     1.754666646   0   0   0 # Mo
    140     31   1  0.000000    83.730999975     4.676999878     3.314166387   0   0   0 # s
    141     31   1  0.000000    83.730999975     4.676999878     0.195166906   0   0   0 # s
    142     32   2  0.000000    81.929999976     1.557999878     1.754666646   0   0   0 # Mo
    143     32   1  0.000000    83.730999975     1.557999878     3.314166387   0   0   0 # s
    144     32   1  0.000000    83.730999975     1.557999878     0.195166906   0   0   0 # s
    145     33   1  0.000000    86.432000000     3.117999863     3.314166387   0   0   0 # s
    146     33   1  0.000000    86.432000000     3.117999863     0.195166906   0   0   0 # s
    147     33   2  0.000000    90.033000071     3.117999863     1.754666646   0   0   0 # Mo
    148     33   2  0.000000    87.331999976     4.676999878     1.754666646   0   0   0 # Mo
    149     33   1  0.000000    89.132999975     4.676999878     3.314166387   0   0   0 # s
    150     33   1  0.000000    89.132999975     4.676999878     0.195166906   0   0   0 # s
    151     34   2  0.000000    87.331999976     1.557999878     1.754666646   0   0   0 # Mo
    152     34   1  0.000000    89.132999975     1.557999878     3.314166387   0   0   0 # s
    153     34   1  0.000000    89.132999975     1.557999878     0.195166906   0   0   0 # s
    154     35   1  0.000000    91.834000000     3.117999863     3.314166387   0   0   0 # s
    155     35   1  0.000000    91.834000000     3.117999863     0.195166906   0   0   0 # s
    156     35   2  0.000000    95.435000071     3.117999863     1.754666646   0   0   0 # Mo
    157     35   2  0.000000    92.733999976     4.676999878     1.754666646   0   0   0 # Mo
    158     35   1  0.000000    94.534999975     4.676999878     3.314166387   0   0   0 # s
    159     35   1  0.000000    94.534999975     4.676999878     0.195166906   0   0   0 # s
    160     36   2  0.000000    92.733999976     1.557999878     1.754666646   0   0   0 # Mo
    161     36   1  0.000000    94.534999975     1.557999878     3.314166387   0   0   0 # s
    162     36   1  0.000000    94.534999975     1.557999878     0.195166906   0   0   0 # s
    163     37   1  0.000000    97.236000000     3.117999863     3.314166387   0   0   0 # s
    164     37   1  0.000000    97.236000000     3.117999863     0.195166906   0   0   0 # s
    165     37   2  0.000000   100.837000071     3.117999863     1.754666646   0   0   0 # Mo
    166     37   2  0.000000    98.135999976     4.676999878     1.754666646   0   0   0 # Mo
    167     37   1  0.000000    99.936999975     4.676999878     3.314166387   0   0   0 # s
    168     37   1  0.000000    99.936999975     4.676999878     0.195166906   0   0   0 # s
    169     38   2  0.000000    98.135999976     1.557999878     1.754666646   0   0   0 # Mo
    170     38   1  0.000000    99.936999975     1.557999878     3.314166387   0   0   0 # s
    171     38   1  0.000000    99.936999975     1.557999878     0.195166906   0   0   0 # s
    172     39   1  0.000000   102.638000000     3.117999863     3.314166387   0   0   0 # s
    173     39   1  0.000000   102.638000000     3.117999863     0.195166906   0   0   0 # s
    174     39   2  0.000000   106.239000071     3.117999863     1.754666646   0   0   0 # Mo
    175     39   2  0.000000   103.537999976     4.676999878     1.754666646   0   0   0 # Mo
    176     39   1  0.000000   105.338999975     4.676999878     3.314166387   0   0   0 # s
    177     39   1  0.000000   105.338999975     4.676999878     0.195166906   0   0   0 # s
    178     40   2  0.000000   103.537999976     1.557999878     1.754666646   0   0   0 # Mo
    179     40   1  0.000000   105.338999975     1.557999878     3.314166387   0   0   0 # s
    180     40   1  0.000000   105.338999975     1.557999878     0.195166906   0   0   0 # s
    181     41   1  0.000000   108.040000000     3.117999863     3.314166387   0   0   0 # s
    182     41   1  0.000000   108.040000000     3.117999863     0.195166906   0   0   0 # s
    183     41   2  0.000000   111.641000071     3.117999863     1.754666646   0   0   0 # Mo
    184     41   2  0.000000   108.939999976     4.676999878     1.754666646   0   0   0 # Mo
    185     41   1  0.000000   110.740999975     4.676999878     3.314166387   0   0   0 # s
    186     41   1  0.000000   110.740999975     4.676999878     0.195166906   0   0   0 # s
    187     42   2  0.000000   108.939999976     1.557999878     1.754666646   0   0   0 # Mo
    188     42   1  0.000000   110.740999975     1.557999878     3.314166387   0   0   0 # s
    189     42   1  0.000000   110.740999975     1.557999878     0.195166906   0   0   0 # s
    190     43   1  0.000000   113.442000000     3.117999863     3.314166387   0   0   0 # s
    191     43   1  0.000000   113.442000000     3.117999863     0.195166906   0   0   0 # s
    192     43   2  0.000000   117.043000071     3.117999863     1.754666646   0   0   0 # Mo
    193     43   2  0.000000   114.341999976     4.676999878     1.754666646   0   0   0 # Mo
    194     43   1  0.000000   116.142999975     4.676999878     3.314166387   0   0   0 # s
    195     43   1  0.000000   116.142999975     4.676999878     0.195166906   0   0   0 # s
    196     44   2  0.000000   114.341999976     1.557999878     1.754666646   0   0   0 # Mo
    197     44   1  0.000000   116.142999975     1.557999878     3.314166387   0   0   0 # s
    198     44   1  0.000000   116.142999975     1.557999878     0.195166906   0   0   0 # s
    199     45   1  0.000000   118.844000000     3.117999863     3.314166387   0   0   0 # s
    200     45   1  0.000000   118.844000000     3.117999863     0.195166906   0   0   0 # s
    201     45   2  0.000000   122.445000071     3.117999863     1.754666646   0   0   0 # Mo
    202     45   2  0.000000   119.743999976     4.676999878     1.754666646   0   0   0 # Mo
    203     45   1  0.000000   121.544999975     4.676999878     3.314166387   0   0   0 # s
    204     45   1  0.000000   121.544999975     4.676999878     0.195166906   0   0   0 # s
    205     46   2  0.000000   119.743999976     1.557999878     1.754666646   0   0   0 # Mo
    206     46   1  0.000000   121.544999975     1.557999878     3.314166387   0   0   0 # s
    207     46   1  0.000000   121.544999975     1.557999878     0.195166906   0   0   0 # s
    208     47   1  0.000000   124.246000000     3.117999863     3.314166387   0   0   0 # s
    209     47   1  0.000000   124.246000000     3.117999863     0.195166906   0   0   0 # s
    210     47   2  0.000000   127.847000071     3.117999863     1.754666646   0   0   0 # Mo
    211     47   2  0.000000   125.145999976     4.676999878     1.754666646   0   0   0 # Mo
    212     47   1  0.000000   126.946999975     4.676999878     3.314166387   0   0   0 # s
    213     47   1  0.000000   126.946999975     4.676999878     0.195166906   0   0   0 # s
    214     48   2  0.000000   125.145999976     1.557999878     1.754666646   0   0   0 # Mo
    215     48   1  0.000000   126.946999975     1.557999878     3.314166387   0   0   0 # s
    216     48   1  0.000000   126.946999975     1.557999878     0.195166906   0   0   0 # s
    217     49   1  0.000000   129.648000000     3.117999863     3.314166387   0   0   0 # s
    218     49   1  0.000000   129.648000000     3.117999863     0.195166906   0   0   0 # s
    219     49   2  0.000000   133.249000071     3.117999863     1.754666646   0   0   0 # Mo
    220     49   2  0.000000   130.547999976     4.676999878     1.754666646   0   0   0 # Mo
    221     49   1  0.000000   132.348999975     4.676999878     3.314166387   0   0   0 # s
    222     49   1  0.000000   132.348999975     4.676999878     0.195166906   0   0   0 # s
    223     50   2  0.000000   130.547999976     1.557999878     1.754666646   0   0   0 # Mo
    224     50   1  0.000000   132.348999975     1.557999878     3.314166387   0   0   0 # s
    225     50   1  0.000000   132.348999975     1.557999878     0.195166906   0   0   0 # s
    226     51   1  0.000000   135.050000000     3.117999863     3.314166387   0   0   0 # s
    227     51   1  0.000000   135.050000000     3.117999863     0.195166906   0   0   0 # s
    228     51   2  0.000000   138.651000071     3.117999863     1.754666646   0   0   0 # Mo
    229     51   2  0.000000   135.949999976     4.676999878     1.754666646   0   0   0 # Mo
    230     51   1  0.000000   137.750999975     4.676999878     3.314166387   0   0   0 # s
    231     51   1  0.000000   137.750999975     4.676999878     0.195166906   0   0   0 # s
    232     52   2  0.000000   135.949999976     1.557999878     1.754666646   0   0   0 # Mo
    233     52   1  0.000000   137.750999975     1.557999878     3.314166387   0   0   0 # s
    234     52   1  0.000000   137.750999975     1.557999878     0.195166906   0   0   0 # s
    235     53   1  0.000000   140.452000000     3.117999863     3.314166387   0   0   0 # s
    236     53   1  0.000000   140.452000000     3.117999863     0.195166906   0   0   0 # s
    237     53   2  0.000000   144.053000071     3.117999863     1.754666646   0   0   0 # Mo
    238     53   2  0.000000   141.351999976     4.676999878     1.754666646   0   0   0 # Mo
    239     53   1  0.000000   143.152999975     4.676999878     3.314166387   0   0   0 # s
    240     53   1  0.000000   143.152999975     4.676999878     0.195166906   0   0   0 # s
    241     54   2  0.000000   141.351999976     1.557999878     1.754666646   0   0   0 # Mo
    242     54   1  0.000000   143.152999975     1.557999878     3.314166387   0   0   0 # s
    243     54   1  0.000000   143.152999975     1.557999878     0.195166906   0   0   0 # s
    244     55   1  0.000000   145.854000000     3.117999863     3.314166387   0   0   0 # s
    245     55   1  0.000000   145.854000000     3.117999863     0.195166906   0   0   0 # s
    246     55   2  0.000000   149.455000071     3.117999863     1.754666646   0   0   0 # Mo
    247     55   2  0.000000   146.753999976     4.676999878     1.754666646   0   0   0 # Mo
    248     55   1  0.000000   148.554999975     4.676999878     3.314166387   0   0   0 # s
    249     55   1  0.000000   148.554999975     4.676999878     0.195166906   0   0   0 # s
    250     56   2  0.000000   146.753999976     1.557999878     1.754666646   0   0   0 # Mo
    251     56   1  0.000000   148.554999975     1.557999878     3.314166387   0   0   0 # s
    252     56   1  0.000000   148.554999975     1.557999878     0.195166906   0   0   0 # s
    253     57   1  0.000000   151.256000000     3.117999863     3.314166387   0   0   0 # s
    254     57   1  0.000000   151.256000000     3.117999863     0.195166906   0   0   0 # s
    255     57   2  0.000000   154.857000071     3.117999863     1.754666646   0   0   0 # Mo
    256     57   2  0.000000   152.155999976     4.676999878     1.754666646   0   0   0 # Mo
    257     57   1  0.000000   153.956999975     4.676999878     3.314166387   0   0   0 # s
    258     57   1  0.000000   153.956999975     4.676999878     0.195166906   0   0   0 # s
    259     58   2  0.000000   152.155999976     1.557999878     1.754666646   0   0   0 # Mo
    260     58   1  0.000000   153.956999975     1.557999878     3.314166387   0   0   0 # s
    261     58   1  0.000000   153.956999975     1.557999878     0.195166906   0   0   0 # s
    262     59   1  0.000000   156.658000000     3.117999863     3.314166387   0   0   0 # s
    263     59   1  0.000000   156.658000000     3.117999863     0.195166906   0   0   0 # s
    264     59   2  0.000000   160.259000071     3.117999863     1.754666646   0   0   0 # Mo
    265     59   2  0.000000   157.557999976     4.676999878     1.754666646   0   0   0 # Mo
    266     59   1  0.000000   159.358999975     4.676999878     3.314166387   0   0   0 # s
    267     59   1  0.000000   159.358999975     4.676999878     0.195166906   0   0   0 # s
    268     60   2  0.000000   157.557999976     1.557999878     1.754666646   0   0   0 # Mo
    269     60   1  0.000000   159.358999975     1.557999878     3.314166387   0   0   0 # s
    270     60   1  0.000000   159.358999975     1.557999878     0.195166906   0   0   0 # s
    271     61   1  0.000000   162.060000000     3.117999863     3.314166387   0   0   0 # s
    272     61   1  0.000000   162.060000000     3.117999863     0.195166906   0   0   0 # s
    273     61   2  0.000000   165.661000071     3.117999863     1.754666646   0   0   0 # Mo
    274     61   2  0.000000   162.959999976     4.676999878     1.754666646   0   0   0 # Mo
    275     61   1  0.000000   164.760999975     4.676999878     3.314166387   0   0   0 # s
    276     61   1  0.000000   164.760999975     4.676999878     0.195166906   0   0   0 # s
    277     62   2  0.000000   162.959999976     1.557999878     1.754666646   0   0   0 # Mo
    278     62   1  0.000000   164.760999975     1.557999878     3.314166387   0   0   0 # s
    279     62   1  0.000000   164.760999975     1.557999878     0.195166906   0   0   0 # s
    280     63   1  0.000000   167.462000000     3.117999863     3.314166387   0   0   0 # s
    281     63   1  0.000000   167.462000000     3.117999863     0.195166906   0   0   0 # s
    282     63   2  0.000000   171.063000071     3.117999863     1.754666646   0   0   0 # Mo
    283     63   2  0.000000   168.361999976     4.676999878     1.754666646   0   0   0 # Mo
    284     63   1  0.000000   170.162999975     4.676999878     3.314166387   0   0   0 # s
    285     63   1  0.000000   170.162999975     4.676999878     0.195166906   0   0   0 # s
    286     64   2  0.000000   168.361999976     1.557999878     1.754666646   0   0   0 # Mo
    287     64   1  0.000000   170.162999975     1.557999878     3.314166387   0   0   0 # s
    288     64   1  0.000000   170.162999975     1.557999878     0.195166906   0   0   0 # s
    289     65   1  0.000000   172.864000000     3.117999863     3.314166387   0   0   0 # s
    290     65   1  0.000000   172.864000000     3.117999863     0.195166906   0   0   0 # s
    291     65   2  0.000000   176.465000071     3.117999863     1.754666646   0   0   0 # Mo
    292     65   2  0.000000   173.763999976     4.676999878     1.754666646   0   0   0 # Mo
    293     65   1  0.000000   175.564999975     4.676999878     3.314166387   0   0   0 # s
    294     65   1  0.000000   175.564999975     4.676999878     0.195166906   0   0   0 # s
    295     66   2  0.000000   173.763999976     1.557999878     1.754666646   0   0   0 # Mo
    296     66   1  0.000000   175.564999975     1.557999878     3.314166387   0   0   0 # s
    297     66   1  0.000000   175.564999975     1.557999878     0.195166906   0   0   0 # s
    298     67   1  0.000000   178.266000000     3.117999863     3.314166387   0   0   0 # s
    299     67   1  0.000000   178.266000000     3.117999863     0.195166906   0   0   0 # s
    300     67   2  0.000000   181.867000071     3.117999863     1.754666646   0   0   0 # Mo
    301     67   2  0.000000   179.165999976     4.676999878     1.754666646   0   0   0 # Mo
    302     67   1  0.000000   180.966999975     4.676999878     3.314166387   0   0   0 # s
    303     67   1  0.000000   180.966999975     4.676999878     0.195166906   0   0   0 # s
    304     68   2  0.000000   179.165999976     1.557999878     1.754666646   0   0   0 # Mo
    305     68   1  0.000000   180.966999975     1.557999878     3.314166387   0   0   0 # s
    306     68   1  0.000000   180.966999975     1.557999878     0.195166906   0   0   0 # s
    307     69   1  0.000000   183.668000000     3.117999863     3.314166387   0   0   0 # s
    308     69   1  0.000000   183.668000000     3.117999863     0.195166906   0   0   0 # s
    309     69   2  0.000000   187.269000071     3.117999863     1.754666646   0   0   0 # Mo
    310     69   2  0.000000   184.567999976     4.676999878     1.754666646   0   0   0 # Mo
    311     69   1  0.000000   186.368999975     4.676999878     3.314166387   0   0   0 # s
    312     69   1  0.000000   186.368999975     4.676999878     0.195166906   0   0   0 # s
    313     70   2  0.000000   184.567999976     1.557999878     1.754666646   0   0   0 # Mo
    314     70   1  0.000000   186.368999975     1.557999878     3.314166387   0   0   0 # s
    315     70   1  0.000000   186.368999975     1.557999878     0.195166906   0   0   0 # s
    316     71   1  0.000000   189.070000000     3.117999863     3.314166387   0   0   0 # s
    317     71   1  0.000000   189.070000000     3.117999863     0.195166906   0   0   0 # s