LAMMPS data file. msi2lmp v3.9.9 / 05 Nov 2018 / CGCMM for 5x8MoS2_MoSe2

   9600 atoms
      0 bonds
      0 angles
      0 dihedrals
      0 impropers

   3 atom types
   0 bond types
   0 angle types
   0 dihedral types
   0 improper types

    -1.050500000   539.149500000 xlo xhi
     0.778499870    50.682499870 ylo yhi
   -23.245333354    26.754666646 zlo zhi

Masses

   1   32.060000 # S
   2   95.940000 # Mo
   3   209.900000 # S209

Atoms # full

      1      1    1      0.000000     0.000000000     3.117999863     3.314166387   0   0   0   
      2      1    1      0.000000     0.000000000     3.117999863     0.195166906   0   0   0   
      3      1    2      0.000000     3.601000071     3.117999863     1.754666646   0   0   0   
      4      1    2      0.000000     0.899999976     4.676999878     1.754666646   0   0   0   
      5      1    1      0.000000     2.700999975     4.676999878     3.314166387   0   0   0   
      6      1    1      0.000000     2.700999975     4.676999878     0.195166906   0   0   0   
      7      2    2      0.000000     0.899999976     1.557999878     1.754666646   0   0   0   
      8      2    1      0.000000     2.700999975     1.557999878     3.314166387   0   0   0   
      9      2    1      0.000000     2.700999975     1.557999878     0.195166906   0   0   0   
      10      3    1      0.000000     5.402000000     3.117999863     3.314166387   0   0   0   
      11      3    1      0.000000     5.402000000     3.117999863     0.195166906   0   0   0   
      12      3    2      0.000000     9.003000071     3.117999863     1.754666646   0   0   0   
      13      3    2      0.000000     6.301999976     4.676999878     1.754666646   0   0   0   
      14      3    1      0.000000     8.102999975     4.676999878     3.314166387   0   0   0   
      15      3    1      0.000000     8.102999975     4.676999878     0.195166906   0   0   0   
      16      4    2      0.000000     6.301999976     1.557999878     1.754666646   0   0   0   
      17      4    1      0.000000     8.102999975     1.557999878     3.314166387   0   0   0   
      18      4    1      0.000000     8.102999975     1.557999878     0.195166906   0   0   0   
      19      5    1      0.000000     10.804000000     3.117999863     3.314166387   0   0   0   
      20      5    1      0.000000     10.804000000     3.117999863     0.195166906   0   0   0   
      21      5    2      0.000000     14.405000071     3.117999863     1.754666646   0   0   0   
      22      5    2      0.000000     11.703999976     4.676999878     1.754666646   0   0   0   
      23      5    1      0.000000     13.504999975     4.676999878     3.314166387   0   0   0   
      24      5    3      0.000000     13.504999975     4.676999878     0.195166906   0   0   0   
      25      6    2      0.000000     11.703999976     1.557999878     1.754666646   0   0   0   
      26      6    1      0.000000     13.504999975     1.557999878     3.314166387   0   0   0   
      27      6    3      0.000000     13.504999975     1.557999878     0.195166906   0   0   0   
      28      7    1      0.000000     16.206000000     3.117999863     3.314166387   0   0   0   
      29      7    1      0.000000     16.206000000     3.117999863     0.195166906   0   0   0   
      30      7    2      0.000000     19.807000071     3.117999863     1.754666646   0   0   0   
      31      7    2      0.000000     17.105999976     4.676999878     1.754666646   0   0   0   
      32      7    3      0.000000     18.906999975     4.676999878     3.314166387   0   0   0   
      33      7    3      0.000000     18.906999975     4.676999878     0.195166906   0   0   0   
      34      8    2      0.000000     17.105999976     1.557999878     1.754666646   0   0   0   
      35      8    3      0.000000     18.906999975     1.557999878     3.314166387   0   0   0   
      36      8    3      0.000000     18.906999975     1.557999878     0.195166906   0   0   0   
      37      9    1      0.000000     21.608000000     3.117999863     3.314166387   0   0   0   
      38      9    1      0.000000     21.608000000     3.117999863     0.195166906   0   0   0   
      39      9    2      0.000000     25.209000071     3.117999863     1.754666646   0   0   0   
      40      9    2      0.000000     22.507999976     4.676999878     1.754666646   0   0   0   
      41      9    1      0.000000     24.308999975     4.676999878     3.314166387   0   0   0   
      42      9    1      0.000000     24.308999975     4.676999878     0.195166906   0   0   0   
      43      10    2      0.000000     22.507999976     1.557999878     1.754666646   0   0   0   
      44      10    1      0.000000     24.308999975     1.557999878     3.314166387   0   0   0   
      45      10    1      0.000000     24.308999975     1.557999878     0.195166906   0   0   0   
      46      11    1      0.000000     27.010000000     3.117999863     3.314166387   0   0   0   
      47      11    1      0.000000     27.010000000     3.117999863     0.195166906   0   0   0   
      48      11    2      0.000000     30.611000071     3.117999863     1.754666646   0   0   0   
      49      11    2      0.000000     27.909999976     4.676999878     1.754666646   0   0   0   
      50      11    1      0.000000     29.710999975     4.676999878     3.314166387   0   0   0   
      51      11    1      0.000000     29.710999975     4.676999878     0.195166906   0   0   0   
      52      12    2      0.000000     27.909999976     1.557999878     1.754666646   0   0   0   
      53      12    1      0.000000     29.710999975     1.557999878     3.314166387   0   0   0   
      54      12    1      0.000000     29.710999975     1.557999878     0.195166906   0   0   0   
      55      13    1      0.000000     32.412000000     3.117999863     3.314166387   0   0   0   
      56      13    1      0.000000     32.412000000     3.117999863     0.195166906   0   0   0   
      57      13    2      0.000000     36.013000071     3.117999863     1.754666646   0   0   0   
      58      13    2      0.000000     33.311999976     4.676999878     1.754666646   0   0   0   
      59      13    3      0.000000     35.112999975     4.676999878     3.314166387   0   0   0   
      60      13    1      0.000000     35.112999975     4.676999878     0.195166906   0   0   0   
      61      14    2      0.000000     33.311999976     1.557999878     1.754666646   0   0   0   
      62      14    1      0.000000     35.112999975     1.557999878     3.314166387   0   0   0   
      63      14    1      0.000000     35.112999975     1.557999878     0.195166906   0   0   0   
      64      15    3      0.000000     37.814000000     3.117999863     3.314166387   0   0   0   
      65      15    1      0.000000     37.814000000     3.117999863     0.195166906   0   0   0   
      66      15    2      0.000000     41.415000071     3.117999863     1.754666646   0   0   0   
      67      15    2      0.000000     38.713999976     4.676999878     1.754666646   0   0   0   
      68      15    1      0.000000     40.514999975     4.676999878     3.314166387   0   0   0   
      69      15    1      0.000000     40.514999975     4.676999878     0.195166906   0   0   0   
      70      16    2      0.000000     38.713999976     1.557999878     1.754666646   0   0   0   
      71      16    1      0.000000     40.514999975     1.557999878     3.314166387   0   0   0   
      72      16    1      0.000000     40.514999975     1.557999878     0.195166906   0   0   0   
      73      17    1      0.000000     43.216000000     3.117999863     3.314166387   0   0   0   
      74      17    1      0.000000     43.216000000     3.117999863     0.195166906   0   0   0   
      75      17    2      0.000000     46.817000071     3.117999863     1.754666646   0   0   0   
      76      17    2      0.000000     44.115999976     4.676999878     1.754666646   0   0   0   
      77      17    1      0.000000     45.916999975     4.676999878     3.314166387   0   0   0   
      78      17    3      0.000000     45.916999975     4.676999878     0.195166906   0   0   0   
      79      18    2      0.000000     44.115999976     1.557999878     1.754666646   0   0   0   
      80      18    3      0.000000     45.916999975     1.557999878     3.314166387   0   0   0   
      81      18    1      0.000000     45.916999975     1.557999878     0.195166906   0   0   0   
      82      19    1      0.000000     48.618000000     3.117999863     3.314166387   0   0   0   
      83      19    1      0.000000     48.618000000     3.117999863     0.195166906   0   0   0   
      84      19    2      0.000000     52.219000071     3.117999863     1.754666646   0   0   0   
      85      19    2      0.000000     49.517999976     4.676999878     1.754666646   0   0   0   
      86      19    1      0.000000     51.318999975     4.676999878     3.314166387   0   0   0   
      87      19    1      0.000000     51.318999975     4.676999878     0.195166906   0   0   0   
      88      20    2      0.000000     49.517999976     1.557999878     1.754666646   0   0   0   
      89      20    1      0.000000     51.318999975     1.557999878     3.314166387   0   0   0   
      90      20    1      0.000000     51.318999975     1.557999878     0.195166906   0   0   0   
      91      21    1      0.000000     54.020000000     3.117999863     3.314166387   0   0   0   
      92      21    1      0.000000     54.020000000     3.117999863     0.195166906   0   0   0   
      93      21    2      0.000000     57.621000071     3.117999863     1.754666646   0   0   0   
      94      21    2      0.000000     54.919999976     4.676999878     1.754666646   0   0   0   
      95      21    1      0.000000     56.720999975     4.676999878     3.314166387   0   0   0   
      96      21    3      0.000000     56.720999975     4.676999878     0.195166906   0   0   0   
      97      22    2      0.000000     54.919999976     1.557999878     1.754666646   0   0   0   
      98      22    1      0.000000     56.720999975     1.557999878     3.314166387   0   0   0   
      99      22    1      0.000000     56.720999975     1.557999878     0.195166906   0   0   0   
      100      23    3      0.000000     59.422000000     3.117999863     3.314166387   0   0   0   
      101      23    1      0.000000     59.422000000     3.117999863     0.195166906   0   0   0   
      102      23    2      0.000000     63.023000071     3.117999863     1.754666646   0   0   0   
      103      23    2      0.000000     60.321999976     4.676999878     1.754666646   0   0   0   
      104      23    1      0.000000     62.122999975     4.676999878     3.314166387   0   0   0   
      105      23    3      0.000000     62.122999975     4.676999878     0.195166906   0   0   0   
      106      24    2      0.000000     60.321999976     1.557999878     1.754666646   0   0   0   
      107      24    1      0.000000     62.122999975     1.557999878     3.314166387   0   0   0   
      108      24    1      0.000000     62.122999975     1.557999878     0.195166906   0   0   0   
      109      25    1      0.000000     64.824000000     3.117999863     3.314166387   0   0   0   
      110      25    1      0.000000     64.824000000     3.117999863     0.195166906   0   0   0   
      111      25    2      0.000000     68.425000071     3.117999863     1.754666646   0   0   0   
      112      25    2      0.000000     65.723999976     4.676999878     1.754666646   0   0   0   
      113      25    3      0.000000     67.524999975     4.676999878     3.314166387   0   0   0   
      114      25    1      0.000000     67.524999975     4.676999878     0.195166906   0   0   0   
      115      26    2      0.000000     65.723999976     1.557999878     1.754666646   0   0   0   
      116      26    1      0.000000     67.524999975     1.557999878     3.314166387   0   0   0   
      117      26    1      0.000000     67.524999975     1.557999878     0.195166906   0   0   0   
      118      27    1      0.000000     70.226000000     3.117999863     3.314166387   0   0   0   
      119      27    1      0.000000     70.226000000     3.117999863     0.195166906   0   0   0   
      120      27    2      0.000000     73.827000071     3.117999863     1.754666646   0   0   0   
      121      27    2      0.000000     71.125999976     4.676999878     1.754666646   0   0   0   
      122      27    1      0.000000     72.926999975     4.676999878     3.314166387   0   0   0   
      123      27    3      0.000000     72.926999975     4.676999878     0.195166906   0   0   0   
      124      28    2      0.000000     71.125999976     1.557999878     1.754666646   0   0   0   
      125      28    3      0.000000     72.926999975     1.557999878     3.314166387   0   0   0   
      126      28    1      0.000000     72.926999975     1.557999878     0.195166906   0   0   0   
      127      29    1      0.000000     75.628000000     3.117999863     3.314166387   0   0   0   
      128      29    3      0.000000     75.628000000     3.117999863     0.195166906   0   0   0   
      129      29    2      0.000000     79.229000071     3.117999863     1.754666646   0   0   0   
      130      29    2      0.000000     76.527999976     4.676999878     1.754666646   0   0   0   
      131      29    1      0.000000     78.328999975     4.676999878     3.314166387   0   0   0   
      132      29    1      0.000000     78.328999975     4.676999878     0.195166906   0   0   0   
      133      30    2      0.000000     76.527999976     1.557999878     1.754666646   0   0   0   
      134      30    3      0.000000     78.328999975     1.557999878     3.314166387   0   0   0   
      135      30    1      0.000000     78.328999975     1.557999878     0.195166906   0   0   0   
      136      31    1      0.000000     81.030000000     3.117999863     3.314166387   0   0   0   
      137      31    1      0.000000     81.030000000     3.117999863     0.195166906   0   0   0   
      138      31    2      0.000000     84.631000071     3.117999863     1.754666646   0   0   0   
      139      31    2      0.000000     81.929999976     4.676999878     1.754666646   0   0   0   
      140      31    1      0.000000     83.730999975     4.676999878     3.314166387   0   0   0   
      141      31    1      0.000000     83.730999975     4.676999878     0.195166906   0   0   0   
      142      32    2      0.000000     81.929999976     1.557999878     1.754666646   0   0   0   
      143      32    1      0.000000     83.730999975     1.557999878     3.314166387   0   0   0   
      144      32    1      0.000000     83.730999975     1.557999878     0.195166906   0   0   0   
      145      33    1      0.000000     86.432000000     3.117999863     3.314166387   0   0   0   
      146      33    3      0.000000     86.432000000     3.117999863     0.195166906   0   0   0   
      147      33    2      0.000000     90.033000071     3.117999863     1.754666646   0   0   0   
      148      33    2      0.000000     87.331999976     4.676999878     1.754666646   0   0   0   
      149      33    1      0.000000     89.132999975     4.676999878     3.314166387   0   0   0   
      150      33    1      0.000000     89.132999975     4.676999878     0.195166906   0   0   0   
      151      34    2      0.000000     87.331999976     1.557999878     1.754666646   0   0   0   
      152      34    1      0.000000     89.132999975     1.557999878     3.314166387   0   0   0   
      153      34    1      0.000000     89.132999975     1.557999878     0.195166906   0   0   0   
      154      35    1      0.000000     91.834000000     3.117999863     3.314166387   0   0   0   
      155      35    1      0.000000     91.834000000     3.117999863     0.195166906   0   0   0   
      156      35    2      0.000000     95.435000071     3.117999863     1.754666646   0   0   0   
      157      35    2      0.000000     92.733999976     4.676999878     1.754666646   0   0   0   
      158      35    1      0.000000     94.534999975     4.676999878     3.314166387   0   0   0   
      159      35    3      0.000000     94.534999975     4.676999878     0.195166906   0   0   0   
      160      36    2      0.000000     92.733999976     1.557999878     1.754666646   0   0   0   
      161      36    1      0.000000     94.534999975     1.557999878     3.314166387   0   0   0   
      162      36    3      0.000000     94.534999975     1.557999878     0.195166906   0   0   0   
      163      37    1      0.000000     97.236000000     3.117999863     3.314166387   0   0   0   
      164      37    1      0.000000     97.236000000     3.117999863     0.195166906   0   0   0   
      165      37    2      0.000000     100.837000071     3.117999863     1.754666646   0   0   0   
      166      37    2      0.000000     98.135999976     4.676999878     1.754666646   0   0   0   
      167      37    1      0.000000     99.936999975     4.676999878     3.314166387   0   0   0   
      168      37    1      0.000000     99.936999975     4.676999878     0.195166906   0   0   0   
      169      38    2      0.000000     98.135999976     1.557999878     1.754666646   0   0   0   
      170      38    1      0.000000     99.936999975     1.557999878     3.314166387   0   0   0   
      171      38    3      0.000000     99.936999975     1.557999878     0.195166906   0   0   0   
      172      39    3      0.000000     102.638000000     3.117999863     3.314166387   0   0   0   
      173      39    1      0.000000     102.638000000     3.117999863     0.195166906   0   0   0   
      174      39    2      0.000000     106.239000071     3.117999863     1.754666646   0   0   0   
      175      39    2      0.000000     103.537999976     4.676999878     1.754666646   0   0   0   
      176      39    1      0.000000     105.338999975     4.676999878     3.314166387   0   0   0   
      177      39    1      0.000000     105.338999975     4.676999878     0.195166906   0   0   0   
      178      40    2      0.000000     103.537999976     1.557999878     1.754666646   0   0   0   
      179      40    1      0.000000     105.338999975     1.557999878     3.314166387   0   0   0   
      180      40    3      0.000000     105.338999975     1.557999878     0.195166906   0   0   0   
      181      41    1      0.000000     108.040000000     3.117999863     3.314166387   0   0   0   
      182      41    1      0.000000     108.040000000     3.117999863     0.195166906   0   0   0   
      183      41    2      0.000000     111.641000071     3.117999863     1.754666646   0   0   0   
      184      41    2      0.000000     108.939999976     4.676999878     1.754666646   0   0   0   
      185      41    3      0.000000     110.740999975     4.676999878     3.314166387   0   0   0   
      186      41    1      0.000000     110.740999975     4.676999878     0.195166906   0   0   0   
      187      42    2      0.000000     108.939999976     1.557999878     1.754666646   0   0   0   
      188      42    1      0.000000     110.740999975     1.557999878     3.314166387   0   0   0   
      189      42    3      0.000000     110.740999975     1.557999878     0.195166906   0   0   0   
      190      43    3      0.000000     113.442000000     3.117999863     3.314166387   0   0   0   
      191      43    1      0.000000     113.442000000     3.117999863     0.195166906   0   0   0   
      192      43    2      0.000000     117.043000071     3.117999863     1.754666646   0   0   0   
      193      43    2      0.000000     114.341999976     4.676999878     1.754666646   0   0   0   
      194      43    1      0.000000     116.142999975     4.676999878     3.314166387   0   0   0   
      195      43    1      0.000000     116.142999975     4.676999878     0.195166906   0   0   0   
      196      44    2      0.000000     114.341999976     1.557999878     1.754666646   0   0   0   
      197      44    1      0.000000     116.142999975     1.557999878     3.314166387   0   0   0   
      198      44    1      0.000000     116.142999975     1.557999878     0.195166906   0   0   0   
      199      45    1      0.000000     118.844000000     3.117999863     3.314166387   0   0   0   
      200      45    1      0.000000     118.844000000     3.117999863     0.195166906   0   0   0   
      201      45    2      0.000000     122.445000071     3.117999863     1.754666646   0   0   0   
      202      45    2      0.000000     119.743999976     4.676999878     1.754666646   0   0   0   
      203      45    1      0.000000     121.544999975     4.676999878     3.314166387   0   0   0   
      204      45    1      0.000000     121.544999975     4.676999878     0.195166906   0   0   0   
      205      46    2      0.000000     119.743999976     1.557999878     1.754666646   0   0   0   
      206      46    1      0.000000     121.544999975     1.557999878     3.314166387   0   0   0   
      207      46    3      0.000000     121.544999975     1.557999878     0.195166906   0   0   0   
      208      47    1      0.000000     124.246000000     3.117999863     3.314166387   0   0   0   
      209      47    1      0.000000     124.246000000     3.117999863     0.195166906   0   0   0   
      210      47    2      0.000000     127.847000071     3.117999863     1.754666646   0   0   0   
      211      47    2      0.000000     125.145999976     4.676999878     1.754666646   0   0   0   
      212      47    3      0.000000     126.946999975     4.676999878     3.314166387   0   0   0   
      213      47    3      0.000000     126.946999975     4.676999878     0.195166906   0   0   0   
      214      48    2      0.000000     125.145999976     1.557999878     1.754666646   0   0   0   
      215      48    3      0.000000     126.946999975     1.557999878     3.314166387   0   0   0   
      216      48    1      0.000000     126.946999975     1.557999878     0.195166906   0   0   0   
      217      49    1      0.000000     129.648000000     3.117999863     3.314166387   0   0   0   
      218      49    1      0.000000     129.648000000     3.117999863     0.195166906   0   0   0   
      219      49    2      0.000000     133.249000071     3.117999863     1.754666646   0   0   0   
      220      49    2      0.000000     130.547999976     4.676999878     1.754666646   0   0   0   
      221      49    1      0.000000     132.348999975     4.676999878     3.314166387   0   0   0   
      222      49    1      0.000000     132.348999975     4.676999878     0.195166906   0   0   0   
      223      50    2      0.000000     130.547999976     1.557999878     1.754666646   0   0   0   
      224      50    1      0.000000     132.348999975     1.557999878     3.314166387   0   0   0   
      225      50    3      0.000000     132.348999975     1.557999878     0.195166906   0   0   0   
      226      51    1      0.000000     135.050000000     3.117999863     3.314166387   0   0   0   
      227      51    1      0.000000     135.050000000     3.117999863     0.195166906   0   0   0   
      228      51    2      0.000000     138.651000071     3.117999863     1.754666646   0   0   0   
      229      51    2      0.000000     135.949999976     4.676999878     1.754666646   0   0   0   
      230      51    1      0.000000     137.750999975     4.676999878     3.314166387   0   0   0   
      231      51    3      0.000000     137.750999975     4.676999878     0.195166906   0   0   0   
      232      52    2      0.000000     135.949999976     1.557999878     1.754666646   0   0   0   
      233      52    1      0.000000     137.750999975     1.557999878     3.314166387   0   0   0   
      234      52    1      0.000000     137.750999975     1.557999878     0.195166906   0   0   0   
      235      53    1      0.000000     140.452000000     3.117999863     3.314166387   0   0   0   
      236      53    1      0.000000     140.452000000     3.117999863     0.195166906   0   0   0   
      237      53    2      0.000000     144.053000071     3.117999863     1.754666646   0   0   0   
      238      53    2      0.000000     141.351999976     4.676999878     1.754666646   0   0   0   
      239      53    1      0.000000     143.152999975     4.676999878     3.314166387   0   0   0   
      240      53    1      0.000000     143.152999975     4.676999878     0.195166906   0   0   0   
      241      54    2      0.000000     141.351999976     1.557999878     1.754666646   0   0   0   
      242      54    1      0.000000     143.152999975     1.557999878     3.314166387   0   0   0   
      243      54    1      0.000000     143.152999975     1.557999878     0.195166906   0   0   0   
      244      55    1      0.000000     145.854000000     3.117999863     3.314166387   0   0   0   
      245      55    1      0.000000     145.854000000     3.117999863     0.195166906   0   0   0   
      246      55    2      0.000000     149.455000071     3.117999863     1.754666646   0   0   0   
      247      55    2      0.000000     146.753999976     4.676999878     1.754666646   0   0   0   
      248      55    1      0.000000     148.554999975     4.676999878     3.314166387   0   0   0   
      249      55    1      0.000000     148.554999975     4.676999878     0.195166906   0   0   0   
      250      56    2      0.000000     146.753999976     1.557999878     1.754666646   0   0   0   
      251      56    1      0.000000     148.554999975     1.557999878     3.314166387   0   0   0   
      252      56    3      0.000000     148.554999975     1.557999878     0.195166906   0   0   0   
      253      57    1      0.000000     151.256000000     3.117999863     3.314166387   0   0   0   
      254      57    3      0.000000     151.256000000     3.117999863     0.195166906   0   0   0   
      255      57    2      0.000000     154.857000071     3.117999863     1.754666646   0   0   0   
      256      57    2      0.000000     152.155999976     4.676999878     1.754666646   0   0   0   
      257      57    1      0.000000     153.956999975     4.676999878     3.314166387   0   0   0   
      258      57    1      0.000000     153.956999975     4.676999878     0.195166906   0   0   0   
      259      58    2      0.000000     152.155999976     1.557999878     1.754666646   0   0   0   
      260      58    1      0.000000     153.956999975     1.557999878     3.314166387   0   0   0   
      261      58    3      0.000000     153.956999975     1.557999878     0.195166906   0   0   0   
      262      59    1      0.000000     156.658000000     3.117999863     3.314166387   0   0   0   
      263      59    1      0.000000     156.658000000     3.117999863     0.195166906   0   0   0   
      264      59    2      0.000000     160.259000071     3.117999863     1.754666646   0   0   0   
      265      59    2      0.000000     157.557999976     4.676999878     1.754666646   0   0   0   
      266      59    3      0.000000     159.358999975     4.676999878     3.314166387   0   0   0   
      267      59    1      0.000000     159.358999975     4.676999878     0.195166906   0   0   0   
      268      60    2      0.000000     157.557999976     1.557999878     1.754666646   0   0   0   
      269      60    1      0.000000     159.358999975     1.557999878     3.314166387   0   0   0   
      270      60    1      0.000000     159.358999975     1.557999878     0.195166906   0   0   0   
      271      61    1      0.000000     162.060000000     3.117999863     3.314166387   0   0   0   
      272      61    3      0.000000     162.060000000     3.117999863     0.195166906   0   0   0   
      273      61    2      0.000000     165.661000071     3.117999863     1.754666646   0   0   0   
      274      61    2      0.000000     162.959999976     4.676999878     1.754666646   0   0   0   
      275      61    1      0.000000     164.760999975     4.676999878     3.314166387   0   0   0   
      276      61    3      0.000000     164.760999975     4.676999878     0.195166906   0   0   0   
      277      62    2      0.000000     162.959999976     1.557999878     1.754666646   0   0   0   
      278      62    1      0.000000     164.760999975     1.557999878     3.314166387   0   0   0   
      279      62    3      0.000000     164.760999975     1.557999878     0.195166906   0   0   0   
      280      63    1      0.000000     167.462000000     3.117999863     3.314166387   0   0   0   
      281      63    1      0.000000     167.462000000     3.117999863     0.195166906   0   0   0   
      282      63    2      0.000000     171.063000071     3.117999863     1.754666646   0   0   0   
      283      63    2      0.000000     168.361999976     4.676999878     1.754666646   0   0   0   
      284      63    1      0.000000     170.162999975     4.676999878     3.314166387   0   0   0   
      285      63    1      0.000000     170.162999975     4.676999878     0.195166906   0   0   0   
      286      64    2      0.000000     168.361999976     1.557999878     1.754666646   0   0   0   
      287      64    1      0.000000     170.162999975     1.557999878     3.314166387   0   0   0   
      288      64    1      0.000000     170.162999975     1.557999878     0.195166906   0   0   0   
      289      65    1      0.000000     172.864000000     3.117999863     3.314166387   0   0   0   
      290      65    1      0.000000     172.864000000     3.117999863     0.195166906   0   0   0   
      291      65    2      0.000000     176.465000071     3.117999863     1.754666646   0   0   0   
      292      65    2      0.000000     173.763999976     4.676999878     1.754666646   0   0   0   